LAMMPS (22 Jul 2025)
  using 1 OpenMP thread(s) per MPI task
Lattice spacing in x,y,z = 4.05 4.05 4.05
Created triclinic box = (0 0 0) to (40.5 40.5 40.5) with tilt (0 0 0)
  2 by 4 by 5 MPI processor grid
Created 4000 atoms
  using lattice units in triclinic box = (0 0 0) to (40.5 40.5 40.5) with tilt (0 0 0)
  create_atoms CPU = 0.001 seconds
tabGAP coeff: type 1 is element Al
tabGAP read_file: reading potential file...
Reading tabgap potential file Al.tabgap with DATE: 2024-02-04
tabGAP read_file: e0 for element Al type 1 is -0.0481007
tabGAP read_file: expecting to read in 0 2b potentials and 1 3b potentials
tabGAP read_file: reading 3b potential 0: Al Al Al
tabGAP read_file: done
tabGAP coeff: done reading coefficients
Reading eam/fs potential file Al.eam.fs with DATE: 2024-02-04
Neighbor list info ...
  update: every = 1 steps, delay = 0 steps, check = yes
  max neighbors/atom: 2000, page size: 100000
  master list distance cutoff = 6.2
  ghost atom cutoff = 6.2
  2 neighbor lists, perpetual/occasional/extra = 2 0 0
  (1) pair tabgap, perpetual
      attributes: full, newton on
      pair build: full/nsq
      stencil: none
      bin: none
  (2) pair eam/fs, perpetual, half/full from (1)
      attributes: half, newton on, cut 6.2
      pair build: halffull/newton/tri
      stencil: none
      bin: none
Setting up Verlet run ...
  Unit style    : metal
  Current step  : 0
  Time step     : 0.001
Per MPI rank memory allocation (min/avg/max) = 3.961 | 3.964 | 3.968 Mbytes
   Step          Temp          PotEng         Press         f_avp[1]       f_avp[2]       f_avp[3]       f_avp[4]       f_avp[5]       f_avp[6]   
         0   299.99999     -14974.89      -2903.9736      0              0              0              0              0              0            
     40000   299.13315     -14823.338      9565.9771      9938.6635      9951.6825      9935.1252     -13.769184     -14.856232     -15.612148    
     80000   301.85273     -14821.812      9775.3099      9917.9225      9959.3849      9942.7975      1.2063064      10.417234      17.30418     
    120000   305.17005     -14820.069      9929.9078      9972.5829      9959.1806      9987.8325      1.511972      -2.1323329     -0.22479598   
    160000   299.10829     -14820.256      9895.6281      9941.2566      9940.7904      9959.3354      12.114105      5.2119378      5.3543685    
    200000   299.1845      -14821.071      9756.0074      9965.9688      9964.627       9982.1458      11.22165       7.954224       9.8622851    
    240000   299.37813     -14825.821      9391.5057      9964.8323      9922.2011      9951.0094      0.99595834     14.340813     -6.6762401    
    280000   299.54686     -14822.676      9653.6648      9936.9185      9953.4193      9957.2977     -28.765209      0.0059277533   15.009442    
    320000   291.45254     -14816.627      10103.139      9970.488       9967.0629      9968.6008      12.586373      15.619955      4.086693     
    360000   302.86601     -14817.079      10113.833      9983.2539      9962.3351      9952.3749      9.0148771      11.139218     -14.750804    
    400000   302.91647     -14819.83       9932.1898      9967.9125      9965.279       9956.8587      4.4703107      6.26658        0.80332098   
Loop time of 1501.26 on 40 procs for 400000 steps with 4000 atoms

Performance: 23.021 ns/day, 1.043 hours/ns, 266.442 timesteps/s, 1.066 Matom-step/s
99.4% CPU use with 40 MPI tasks x 1 OpenMP threads

MPI task timing breakdown:
Section |  min time  |  avg time  |  max time  |%varavg| %total
---------------------------------------------------------------
Pair    | 1457.1     | 1459.6     | 1462.3     |   3.4 | 97.23
Neigh   | 1.3522     | 1.3957     | 1.4413     |   3.3 |  0.09
Comm    | 30.157     | 33.08      | 35.514     |  25.4 |  2.20
Output  | 0.00064484 | 0.00071029 | 0.00092023 |   0.0 |  0.00
Modify  | 2.2264     | 2.3537     | 2.7199     |   6.6 |  0.16
Other   |            | 4.793      |            |       |  0.32

Nlocal:            100 ave         111 max          91 min
Histogram: 2 3 6 3 9 4 7 2 2 2
Nghost:         938.35 ave         956 max         920 min
Histogram: 1 4 4 5 5 8 4 2 4 3
Neighs:        2774.45 ave        3111 max        2523 min
Histogram: 2 6 4 7 7 5 5 2 1 1
FullNghs:       5548.9 ave        6157 max        5080 min
Histogram: 2 6 4 6 6 6 4 3 1 2

Total # of neighbors = 221956
Ave neighs/atom = 55.489
Neighbor list builds = 2820
Dangerous builds = 0
WARNING: One or more atoms are time integrated more than once
For more information see https://docs.lammps.org/err0032 (src/modify.cpp:298)
Setting up Verlet run ...
  Unit style    : metal
  Current step  : 400000
  Time step     : 0.001
Per MPI rank memory allocation (min/avg/max) = 3.961 | 3.964 | 3.968 Mbytes
   Step          Temp          PotEng         Press         f_avp[1]       f_avp[2]       f_avp[3]       f_avp[4]       f_avp[5]       f_avp[6]   
    400000   302.91647     -14819.83       9932.1898      9967.9125      9965.279       9956.8587      4.4703107      6.26658        0.80332098   
    440000   562.0062      -14651.92      -537.52832     -89.772316     -57.010718     -57.793962     -6.6527671      21.326033      10.153851    
    480000   565.0454      -14651.8       -158.37485     -142.55801     -83.179399     -95.069702      0.95636012     16.162596     -9.1401527    
    520000   564.91185     -14652.066     -1.3968777     -88.752184     -75.883966     -50.02576       2.1063851      12.358709      12.335871    
    560000   578.65485     -14649.13       483.35125     -123.34873     -137.13595     -81.428327     -41.756766     -11.610058      5.9135902    
    600000   569.10645     -14645.9       -13.751625     -135.84368     -85.827366     -78.828173      35.543341     -1.7092103     -26.759931    
    640000   575.48172     -14648.337      43.275862     -88.342178     -102.52633     -55.498545     -27.482185     -2.3593749      6.0066445    
    680000   563.43129     -14644.229      250.36135     -92.283717     -28.91229      -77.753195      35.346232     -11.58911      -19.05501     
    720000   574.98034     -14644.165      28.160513     -74.474723     -84.213301     -70.436455     -22.676477     -22.571701      5.095985     
    760000   561.84576     -14653.976      204.90698     -88.763189     -30.563584     -151.55436      10.328158      18.043368     -0.89653921   
    800000   567.77589     -14651.883     -106.44344     -144.35914     -66.381856     -122.79096     -16.537676     -41.235995      13.460321    
Loop time of 1497.2 on 40 procs for 400000 steps with 4000 atoms

Performance: 23.083 ns/day, 1.040 hours/ns, 267.166 timesteps/s, 1.069 Matom-step/s
99.4% CPU use with 40 MPI tasks x 1 OpenMP threads

MPI task timing breakdown:
Section |  min time  |  avg time  |  max time  |%varavg| %total
---------------------------------------------------------------
Pair    | 1427.4     | 1431.1     | 1435.3     |   6.6 | 95.58
Neigh   | 7.3562     | 7.5706     | 7.9707     |   6.3 |  0.51
Comm    | 30.434     | 34.566     | 38.406     |  45.3 |  2.31
Output  | 0.00069095 | 0.00075496 | 0.00094517 |   0.0 |  0.00
Modify  | 17.347     | 18.944     | 19.711     |  11.9 |  1.27
Other   |            | 5.042      |            |       |  0.34

Nlocal:            100 ave         106 max          95 min
Histogram: 5 0 6 5 8 6 2 3 4 1
Nghost:        799.325 ave         811 max         788 min
Histogram: 2 2 2 8 10 4 4 4 1 3
Neighs:         2778.7 ave        2941 max        2623 min
Histogram: 4 1 3 3 12 3 6 5 2 1
FullNghs:       5557.4 ave        5914 max        5250 min
Histogram: 5 0 4 7 7 7 2 4 3 1

Total # of neighbors = 222296
Ave neighs/atom = 55.574
Neighbor list builds = 17404
Dangerous builds = 0
1
tabGAP coeff: type 1 is element Al
tabGAP read_file: reading potential file...
Reading tabgap potential file Al.tabgap with DATE: 2024-02-04
tabGAP read_file: e0 for element Al type 1 is -0.0481007
tabGAP read_file: expecting to read in 0 2b potentials and 1 3b potentials
tabGAP read_file: reading 3b potential 0: Al Al Al
tabGAP read_file: done
tabGAP coeff: done reading coefficients
Reading eam/fs potential file Al.eam.fs with DATE: 2024-02-04
WARNING: New thermo_style command, previous thermo_modify settings will be lost (src/output.cpp:912)
Neighbor list info ...
  update: every = 1 steps, delay = 0 steps, check = yes
  max neighbors/atom: 2000, page size: 100000
  master list distance cutoff = 6.2
  ghost atom cutoff = 6.2
  2 neighbor lists, perpetual/occasional/extra = 2 0 0
  (1) pair tabgap, perpetual
      attributes: full, newton on
      pair build: full/nsq
      stencil: none
      bin: none
  (2) pair eam/fs, perpetual, half/full from (1)
      attributes: half, newton on, cut 6.2
      pair build: halffull/newton/tri
      stencil: none
      bin: none
Setting up Verlet run ...
  Unit style    : metal
  Current step  : 0
  Time step     : 0.001
Per MPI rank memory allocation (min/avg/max) = 3.961 | 3.964 | 3.968 Mbytes
   Step          Temp          PotEng         Press         f_avp[1]       f_avp[2]       f_avp[3]       f_avp[4]       f_avp[5]       f_avp[6]   
         0   567.77589     -14651.883     -106.44344      0              0              0              0              0              0            
     40000   300.77404     -14790.137     -14543.116     -14979.214     -14220.463     -14411.78      -4.4707219     -2.6822367      15.832748    
     80000   297.99533     -14787.926     -14315.518     -15035.869     -14258.25      -14464.423      8.1794878      9.222013       6.0731297    
    120000   303.03556     -14791.27      -14601.977     -15026.476     -14245.736     -14472.027      4.4899661      20.698335      12.509653    
Loop time of 422.725 on 40 procs for 120000 steps with 4000 atoms

Performance: 24.527 ns/day, 0.979 hours/ns, 283.872 timesteps/s, 1.135 Matom-step/s
99.5% CPU use with 40 MPI tasks x 1 OpenMP threads

MPI task timing breakdown:
Section |  min time  |  avg time  |  max time  |%varavg| %total
---------------------------------------------------------------
Pair    | 410.69     | 411.47     | 412.1      |   1.6 | 97.34
Neigh   | 0.39239    | 0.40133    | 0.41054    |   1.1 |  0.09
Comm    | 8.0597     | 8.8461     | 9.6906     |  13.0 |  2.09
Output  | 0.00017125 | 0.00020032 | 0.00025527 |   0.0 |  0.00
Modify  | 0.67777    | 0.70359    | 0.80106    |   2.7 |  0.17
Other   |            | 1.309      |            |       |  0.31

Nlocal:            100 ave         103 max          94 min
Histogram: 1 0 2 1 6 6 4 10 5 5
Nghost:          789.4 ave         796 max         780 min
Histogram: 1 0 2 3 6 9 8 3 6 2
Neighs:        2729.45 ave        2862 max        2574 min
Histogram: 1 2 1 8 3 11 3 8 2 1
FullNghs:       5458.9 ave        5637 max        5120 min
Histogram: 1 0 2 1 6 6 4 9 5 6

Total # of neighbors = 218356
Ave neighs/atom = 54.589
Neighbor list builds = 951
Dangerous builds = 0
System init for write_restart ...
  using 1 OpenMP thread(s) per MPI task

The 'box' command has been removed and will be ignored

Reading restart file ...
  restart file = 22 Jul 2025, LAMMPS = 22 Jul 2025
  restoring atom style atomic from restart
  triclinic box = (-0.27279974 -0.2286871 -0.24006881) to (40.7728 40.728687 40.740069) with tilt (0 0 0)
  5 by 2 by 4 MPI processor grid
  pair style hybrid/overlay stores no restart info
  4000 atoms
  read_restart CPU = 0.005 seconds
tabGAP coeff: type 1 is element Al
tabGAP read_file: reading potential file...
Reading tabgap potential file Al.tabgap with DATE: 2024-02-04
tabGAP read_file: e0 for element Al type 1 is -0.0481007
tabGAP read_file: expecting to read in 0 2b potentials and 1 3b potentials
tabGAP read_file: reading 3b potential 0: Al Al Al
tabGAP read_file: done
tabGAP coeff: done reading coefficients
Reading eam/fs potential file Al.eam.fs with DATE: 2024-02-04
Changing box ...
  triclinic box = (-0.27279974 -0.2286871 -0.24006881) to (40.362344 40.728687 40.740069) with tilt (0 0 0)
  triclinic box = (-0.27279974 -0.2286871 -0.24006881) to (40.362344 40.728687 40.740069) with tilt (0 0 0)
  triclinic box = (-0.27279974 -0.2286871 -0.24006881) to (40.362344 40.728687 40.740069) with tilt (0 0 0)
Neighbor list info ...
  update: every = 1 steps, delay = 0 steps, check = yes
  max neighbors/atom: 2000, page size: 100000
  master list distance cutoff = 6.2
  ghost atom cutoff = 6.2
  2 neighbor lists, perpetual/occasional/extra = 2 0 0
  (1) pair tabgap, perpetual
      attributes: full, newton on
      pair build: full/nsq
      stencil: none
      bin: none
  (2) pair eam/fs, perpetual, half/full from (1)
      attributes: half, newton on, cut 6.2
      pair build: halffull/newton/tri
      stencil: none
      bin: none
Setting up Verlet run ...
  Unit style    : metal
  Current step  : 0
  Time step     : 0.001
Per MPI rank memory allocation (min/avg/max) = 3.952 | 3.953 | 3.953 Mbytes
   Step          Temp          PotEng         Press         f_avp[1]       f_avp[2]       f_avp[3]       f_avp[4]       f_avp[5]       f_avp[6]   
         0   303.03556     -14796.841     -7699.0026      0              0              0              0              0              0            
     40000   303.20389     -14801.759     -8193.2785     -6087.8138     -9174.4041     -9388.734       3.8094206     -22.166716     -5.1419411    
     80000   302.15876     -14798.048     -7779.9043     -6113.1892     -9210.2328     -9421.0467     -16.267343      7.2940145     -6.6599344    
    120000   295.31138     -14804.139     -8492.4419     -6088.336      -9192.5464     -9363.0454      24.714526      12.725027     -6.2842686    
    160000   305.6714      -14803.745     -8336.0519     -6101.4621     -9149.4818     -9385.1527      14.219815     -12.736297     -3.6201442    
    200000   302.38794     -14805.26      -8505.7521     -6115.1726     -9179.1959     -9360.3008      0.38867003     5.7867755     -9.7408481    
    240000   300.91682     -14802.893     -8266.9269     -6114.4861     -9187.822      -9404.7192      12.820891     -10.501313      12.024708    
    280000   304.97401     -14802.265     -8235.3072     -6104.534      -9183.0489     -9397.8988      2.3879284     -5.3821989     -8.1984899    
    320000   300.10483     -14799.052     -7944.499      -6123.1174     -9173.8784     -9437.5456      5.660816       9.017082      -17.308833    
    360000   295.00663     -14802.651     -8353.8284     -6119.1162     -9170.3772     -9385.2381     -17.225698      6.0307222     -15.347882    
    400000   304.94084     -14803.206     -8218.6246     -6110.1001     -9173.4831     -9391.3637     -16.257163      8.0806863     -1.2845241    
Loop time of 1393.08 on 40 procs for 400000 steps with 4000 atoms

Performance: 24.808 ns/day, 0.967 hours/ns, 287.133 timesteps/s, 1.149 Matom-step/s
99.4% CPU use with 40 MPI tasks x 1 OpenMP threads

MPI task timing breakdown:
Section |  min time  |  avg time  |  max time  |%varavg| %total
---------------------------------------------------------------
Pair    | 1356.2     | 1357.8     | 1360.1     |   2.6 | 97.47
Neigh   | 1.2685     | 1.3035     | 1.3404     |   2.6 |  0.09
Comm    | 24.517     | 27.031     | 29.745     |  24.1 |  1.94
Output  | 0.00055178 | 0.00061543 | 0.00084361 |   0.0 |  0.00
Modify  | 2.2048     | 2.3251     | 2.6463     |   5.9 |  0.17
Other   |            | 4.574      |            |       |  0.33

Nlocal:            100 ave         102 max          98 min
Histogram: 1 0 8 0 0 22 0 8 0 1
Nghost:        783.925 ave         787 max         780 min
Histogram: 1 2 1 0 15 7 0 8 2 4
Neighs:         2738.3 ave        2817 max        2658 min
Histogram: 2 2 8 4 2 6 6 4 5 1
FullNghs:       5476.6 ave        5624 max        5343 min
Histogram: 1 0 8 0 12 10 7 1 0 1

Total # of neighbors = 219064
Ave neighs/atom = 54.766
Neighbor list builds = 3081
Dangerous builds = 0
tabGAP coeff: type 1 is element Al
tabGAP read_file: reading potential file...
Reading tabgap potential file Al.tabgap with DATE: 2024-02-04
tabGAP read_file: e0 for element Al type 1 is -0.0481007
tabGAP read_file: expecting to read in 0 2b potentials and 1 3b potentials
tabGAP read_file: reading 3b potential 0: Al Al Al
tabGAP read_file: done
tabGAP coeff: done reading coefficients
Reading eam/fs potential file Al.eam.fs with DATE: 2024-02-04
WARNING: New thermo_style command, previous thermo_modify settings will be lost (src/output.cpp:912)
Neighbor list info ...
  update: every = 1 steps, delay = 0 steps, check = yes
  max neighbors/atom: 2000, page size: 100000
  master list distance cutoff = 6.2
  ghost atom cutoff = 6.2
  2 neighbor lists, perpetual/occasional/extra = 2 0 0
  (1) pair tabgap, perpetual
      attributes: full, newton on
      pair build: full/nsq
      stencil: none
      bin: none
  (2) pair eam/fs, perpetual, half/full from (1)
      attributes: half, newton on, cut 6.2
      pair build: halffull/newton/tri
      stencil: none
      bin: none
Setting up Verlet run ...
  Unit style    : metal
  Current step  : 0
  Time step     : 0.001
Per MPI rank memory allocation (min/avg/max) = 3.952 | 3.953 | 3.953 Mbytes
   Step          Temp          PotEng         Press         f_avp[1]       f_avp[2]       f_avp[3]       f_avp[4]       f_avp[5]       f_avp[6]   
         0   304.94084     -14803.206     -8218.6246      0              0              0              0              0              0            
     40000   304.6634      -14803.554     -8380.0681     -6132.4334     -9206.1632     -9432.0781     -0.19749948    -1.2350198      13.278071    
     80000   299.37507     -14801.508     -8181.4802     -6101.9231     -9142.73       -9401.4833     -1.1662199      22.178247      21.477478    
    120000   306.30163     -14801.637     -8109.4108     -6104.1105     -9185.9706     -9399.3863     -4.1213976      6.6632209      13.589509    
Loop time of 417.226 on 40 procs for 120000 steps with 4000 atoms

Performance: 24.850 ns/day, 0.966 hours/ns, 287.614 timesteps/s, 1.150 Matom-step/s
99.4% CPU use with 40 MPI tasks x 1 OpenMP threads

MPI task timing breakdown:
Section |  min time  |  avg time  |  max time  |%varavg| %total
---------------------------------------------------------------
Pair    | 406.15     | 406.69     | 407.39     |   1.5 | 97.47
Neigh   | 0.38496    | 0.39429    | 0.40368    |   1.3 |  0.09
Comm    | 7.2024     | 8.0506     | 8.9026     |  14.4 |  1.93
Output  | 0.00015868 | 0.00018438 | 0.00024035 |   0.0 |  0.00
Modify  | 0.66355    | 0.69592    | 0.78576    |   2.9 |  0.17
Other   |            | 1.397      |            |       |  0.33

Nlocal:            100 ave         104 max          96 min
Histogram: 1 0 0 7 0 24 7 0 0 1
Nghost:         784.75 ave         792 max         780 min
Histogram: 6 3 7 7 4 5 2 1 3 2
Neighs:        2740.65 ave        2817 max        2572 min
Histogram: 1 0 0 1 0 5 15 12 2 4
FullNghs:       5481.3 ave        5706 max        5287 min
Histogram: 1 0 0 8 22 4 4 0 0 1

Total # of neighbors = 219252
Ave neighs/atom = 54.813
Neighbor list builds = 936
Dangerous builds = 0
  using 1 OpenMP thread(s) per MPI task

The 'box' command has been removed and will be ignored

Reading restart file ...
  restart file = 22 Jul 2025, LAMMPS = 22 Jul 2025
  restoring atom style atomic from restart
  triclinic box = (-0.27279974 -0.2286871 -0.24006881) to (40.7728 40.728687 40.740069) with tilt (0 0 0)
  5 by 2 by 4 MPI processor grid
  pair style hybrid/overlay stores no restart info
  4000 atoms
  read_restart CPU = 0.010 seconds
tabGAP coeff: type 1 is element Al
tabGAP read_file: reading potential file...
Reading tabgap potential file Al.tabgap with DATE: 2024-02-04
tabGAP read_file: e0 for element Al type 1 is -0.0481007
tabGAP read_file: expecting to read in 0 2b potentials and 1 3b potentials
tabGAP read_file: reading 3b potential 0: Al Al Al
tabGAP read_file: done
tabGAP coeff: done reading coefficients
Reading eam/fs potential file Al.eam.fs with DATE: 2024-02-04
Changing box ...
  triclinic box = (-0.27279974 -0.2286871 -0.24006881) to (41.183256 40.728687 40.740069) with tilt (0 0 0)
  triclinic box = (-0.27279974 -0.2286871 -0.24006881) to (41.183256 40.728687 40.740069) with tilt (0 0 0)
  triclinic box = (-0.27279974 -0.2286871 -0.24006881) to (41.183256 40.728687 40.740069) with tilt (0 0 0)
Neighbor list info ...
  update: every = 1 steps, delay = 0 steps, check = yes
  max neighbors/atom: 2000, page size: 100000
  master list distance cutoff = 6.2
  ghost atom cutoff = 6.2
  2 neighbor lists, perpetual/occasional/extra = 2 0 0
  (1) pair tabgap, perpetual
      attributes: full, newton on
      pair build: full/nsq
      stencil: none
      bin: none
  (2) pair eam/fs, perpetual, half/full from (1)
      attributes: half, newton on, cut 6.2
      pair build: halffull/newton/tri
      stencil: none
      bin: none
Setting up Verlet run ...
  Unit style    : metal
  Current step  : 0
  Time step     : 0.001
Per MPI rank memory allocation (min/avg/max) = 3.952 | 3.952 | 3.953 Mbytes
   Step          Temp          PotEng         Press         f_avp[1]       f_avp[2]       f_avp[3]       f_avp[4]       f_avp[5]       f_avp[6]   
         0   303.03556     -14781.758     -20901.511      0              0              0              0              0              0            
     40000   298.52303     -14778.005     -20580.043     -22866.815     -18945.216     -19120.937      14.567179      0.95070117    -8.371434     
     80000   296.98297     -14778.977     -20747.234     -22894.402     -18934.556     -19154.982     -5.8360037     -4.2006783      5.0295248    
    120000   293.85227     -14774.27      -20325.884     -22886.56      -18938.054     -19117.779     -2.8521372     -5.704038      -14.254839    
    160000   295.15873     -14773.454     -20173.738     -22863.684     -18938.456     -19099.53       1.4912608     -6.910106      -12.630068    
    200000   300.08182     -14774.394     -20273.577     -22870.293     -18931.286     -19111.727      19.771187     -7.5182154     -14.56044     
    240000   295.95031     -14773.716     -20174.438     -22839.589     -18903.297     -19101.305     -5.4827911      10.682204     -10.136594    
    280000   303.30288     -14776.566     -20467.103     -22835.974     -18928.962     -19108.026     -7.5524099      5.0060154      12.729583    
    320000   291.78184     -14778.321     -20691.778     -22901.925     -18954.551     -19147.239     -19.500862      13.347604      14.791224    
    360000   304.69536     -14774.295     -20256.897     -22891.882     -18935.758     -19134.116      4.8742468      13.163839      10.090891    
    400000   299.32434     -14775.514     -20310.189     -22865.52      -18928.307     -19113.317      6.6105518      6.3244303     -5.1578535    
Loop time of 1410.07 on 40 procs for 400000 steps with 4000 atoms

Performance: 24.509 ns/day, 0.979 hours/ns, 283.674 timesteps/s, 1.135 Matom-step/s
99.5% CPU use with 40 MPI tasks x 1 OpenMP threads

MPI task timing breakdown:
Section |  min time  |  avg time  |  max time  |%varavg| %total
---------------------------------------------------------------
Pair    | 1373       | 1374.8     | 1376.7     |   2.6 | 97.50
Neigh   | 1.3514     | 1.3855     | 1.4249     |   2.6 |  0.10
Comm    | 24.544     | 26.871     | 29.656     |  26.3 |  1.91
Output  | 0.00051272 | 0.00058342 | 0.0008069  |   0.0 |  0.00
Modify  | 2.2451     | 2.3313     | 2.5443     |   4.4 |  0.17
Other   |            | 4.679      |            |       |  0.33

Nlocal:            100 ave         102 max          97 min
Histogram: 1 0 2 0 9 0 15 0 10 3
Nghost:        784.975 ave         792 max         780 min
Histogram: 7 3 4 7 3 6 5 2 0 3
Neighs:        2725.22 ave        2784 max        2619 min
Histogram: 2 0 1 4 4 3 7 5 10 4
FullNghs:      5450.45 ave        5570 max        5276 min
Histogram: 1 2 0 3 6 9 6 4 6 3

Total # of neighbors = 218018
Ave neighs/atom = 54.5045
Neighbor list builds = 3284
Dangerous builds = 0
tabGAP coeff: type 1 is element Al
tabGAP read_file: reading potential file...
Reading tabgap potential file Al.tabgap with DATE: 2024-02-04
tabGAP read_file: e0 for element Al type 1 is -0.0481007
tabGAP read_file: expecting to read in 0 2b potentials and 1 3b potentials
tabGAP read_file: reading 3b potential 0: Al Al Al
tabGAP read_file: done
tabGAP coeff: done reading coefficients
Reading eam/fs potential file Al.eam.fs with DATE: 2024-02-04
WARNING: New thermo_style command, previous thermo_modify settings will be lost (src/output.cpp:912)
Neighbor list info ...
  update: every = 1 steps, delay = 0 steps, check = yes
  max neighbors/atom: 2000, page size: 100000
  master list distance cutoff = 6.2
  ghost atom cutoff = 6.2
  2 neighbor lists, perpetual/occasional/extra = 2 0 0
  (1) pair tabgap, perpetual
      attributes: full, newton on
      pair build: full/nsq
      stencil: none
      bin: none
  (2) pair eam/fs, perpetual, half/full from (1)
      attributes: half, newton on, cut 6.2
      pair build: halffull/newton/tri
      stencil: none
      bin: none
Setting up Verlet run ...
  Unit style    : metal
  Current step  : 0
  Time step     : 0.001
Per MPI rank memory allocation (min/avg/max) = 3.952 | 3.952 | 3.953 Mbytes
   Step          Temp          PotEng         Press         f_avp[1]       f_avp[2]       f_avp[3]       f_avp[4]       f_avp[5]       f_avp[6]   
         0   299.32434     -14775.514     -20310.189      0              0              0              0              0              0            
     40000   301.18701     -14772.306     -20016.504     -22874.077     -18917.464     -19102.148      1.2207164     -23.749837      12.083037    
     80000   299.23043     -14770.871     -19943.081     -22897.133     -18960.877     -19115.542      10.810253      3.988352       8.0631945    
    120000   294.43032     -14778.536     -20737.677     -22892.901     -18942.434     -19102.472      3.0016136     -10.77445      -14.092708    
Loop time of 421.416 on 40 procs for 120000 steps with 4000 atoms

Performance: 24.603 ns/day, 0.976 hours/ns, 284.754 timesteps/s, 1.139 Matom-step/s
99.5% CPU use with 40 MPI tasks x 1 OpenMP threads

MPI task timing breakdown:
Section |  min time  |  avg time  |  max time  |%varavg| %total
---------------------------------------------------------------
Pair    | 410.36     | 410.89     | 411.41     |   1.4 | 97.50
Neigh   | 0.40385    | 0.41387    | 0.42444    |   1.3 |  0.10
Comm    | 7.308      | 7.9994     | 8.9184     |  14.4 |  1.90
Output  | 0.00016408 | 0.00019156 | 0.00025768 |   0.0 |  0.00
Modify  | 0.67351    | 0.69959    | 0.76467    |   2.5 |  0.17
Other   |            | 1.411      |            |       |  0.33

Nlocal:            100 ave         103 max          96 min
Histogram: 1 1 3 0 5 18 0 8 2 2
Nghost:        785.575 ave         790 max         779 min
Histogram: 2 0 3 4 3 4 8 7 5 4
Neighs:         2721.8 ave        2804 max        2609 min
Histogram: 1 0 2 3 7 8 7 8 2 2
FullNghs:       5443.6 ave        5633 max        5236 min
Histogram: 2 0 3 2 6 14 9 2 0 2

Total # of neighbors = 217744
Ave neighs/atom = 54.436
Neighbor list builds = 983
Dangerous builds = 0
  using 1 OpenMP thread(s) per MPI task

The 'box' command has been removed and will be ignored

Reading restart file ...
  restart file = 22 Jul 2025, LAMMPS = 22 Jul 2025
  restoring atom style atomic from restart
  triclinic box = (-0.27279974 -0.2286871 -0.24006881) to (40.7728 40.728687 40.740069) with tilt (0 0 0)
  5 by 2 by 4 MPI processor grid
  pair style hybrid/overlay stores no restart info
  4000 atoms
  read_restart CPU = 0.005 seconds
tabGAP coeff: type 1 is element Al
tabGAP read_file: reading potential file...
Reading tabgap potential file Al.tabgap with DATE: 2024-02-04
tabGAP read_file: e0 for element Al type 1 is -0.0481007
tabGAP read_file: expecting to read in 0 2b potentials and 1 3b potentials
tabGAP read_file: reading 3b potential 0: Al Al Al
tabGAP read_file: done
tabGAP coeff: done reading coefficients
Reading eam/fs potential file Al.eam.fs with DATE: 2024-02-04
Changing box ...
  triclinic box = (-0.27279974 -0.2286871 -0.24006881) to (40.7728 40.319113 40.740069) with tilt (0 0 0)
  triclinic box = (-0.27279974 -0.2286871 -0.24006881) to (40.7728 40.319113 40.740069) with tilt (0 0 0)
Neighbor list info ...
  update: every = 1 steps, delay = 0 steps, check = yes
  max neighbors/atom: 2000, page size: 100000
  master list distance cutoff = 6.2
  ghost atom cutoff = 6.2
  2 neighbor lists, perpetual/occasional/extra = 2 0 0
  (1) pair tabgap, perpetual
      attributes: full, newton on
      pair build: full/nsq
      stencil: none
      bin: none
  (2) pair eam/fs, perpetual, half/full from (1)
      attributes: half, newton on, cut 6.2
      pair build: halffull/newton/tri
      stencil: none
      bin: none
Setting up Verlet run ...
  Unit style    : metal
  Current step  : 0
  Time step     : 0.001
Per MPI rank memory allocation (min/avg/max) = 3.952 | 3.953 | 3.953 Mbytes
   Step          Temp          PotEng         Press         f_avp[1]       f_avp[2]       f_avp[3]       f_avp[4]       f_avp[5]       f_avp[6]   
         0   303.03556     -14796.381     -7645.6369      0              0              0              0              0              0            
     40000   299.42405     -14799.616     -8008.9488     -9965.0255     -5203.5424     -9339.6844     -21.736542     -2.7112044     -0.87357446   
     80000   304.3469      -14802.462     -8226.3998     -9965.0111     -5202.7818     -9329.4371      9.4926954     -1.1462042     -1.4050331    
    120000   300.91802     -14798.489     -7894.6382     -9944.0383     -5220.1869     -9354.0303      6.799074       7.5057585      13.537504    
    160000   306.42584     -14799.721     -7962.593      -9981.2522     -5201.8477     -9329.0316     -14.239644     -16.204023     -11.530409    
    200000   303.63661     -14796.516     -7716.0211     -9990.0928     -5212.0576     -9351.0833     -7.6918704      1.6251237     -0.098715016  
    240000   297.3311      -14802.664     -8295.7299     -9954.8093     -5201.4869     -9341.8747      7.3084234     -9.6468968      7.4441652    
    280000   299.51006     -14804.043     -8411.8744     -9962.9218     -5205.8983     -9340.833      -16.55836      -1.3635961      8.1081844    
    320000   308.67302     -14802.024     -8076.8592     -9975.1577     -5227.1838     -9344.7532     -8.5025503     -3.523599      -4.9976987    
    360000   296.14633     -14799.64      -8111.6785     -9979.0158     -5228.5788     -9333.416      -4.5439812     -7.8426132     -18.264166    
    400000   299.12517     -14801.104     -8097.2288     -9980.6305     -5239.9182     -9348.1568      6.0248728      4.7073003      8.3449764    
Loop time of 1405.75 on 40 procs for 400000 steps with 4000 atoms

Performance: 24.585 ns/day, 0.976 hours/ns, 284.545 timesteps/s, 1.138 Matom-step/s
99.5% CPU use with 40 MPI tasks x 1 OpenMP threads

MPI task timing breakdown:
Section |  min time  |  avg time  |  max time  |%varavg| %total
---------------------------------------------------------------
Pair    | 1368.6     | 1370.3     | 1372.5     |   2.6 | 97.48
Neigh   | 1.2721     | 1.3045     | 1.3372     |   2.4 |  0.09
Comm    | 24.308     | 27.09      | 29.906     |  26.6 |  1.93
Output  | 0.00057784 | 0.00063711 | 0.00090971 |   0.0 |  0.00
Modify  | 2.2518     | 2.3153     | 2.4199     |   3.3 |  0.16
Other   |            | 4.749      |            |       |  0.34

Nlocal:            100 ave         102 max          98 min
Histogram: 2 0 10 0 0 16 0 10 0 2
Nghost:        785.425 ave         793 max         781 min
Histogram: 9 6 8 1 1 4 4 5 0 2
Neighs:        2740.05 ave        2819 max        2634 min
Histogram: 2 1 2 3 5 7 8 5 6 1
FullNghs:       5480.1 ave        5577 max        5352 min
Histogram: 2 0 4 4 4 9 4 7 2 4

Total # of neighbors = 219204
Ave neighs/atom = 54.801
Neighbor list builds = 3075
Dangerous builds = 0
tabGAP coeff: type 1 is element Al
tabGAP read_file: reading potential file...
Reading tabgap potential file Al.tabgap with DATE: 2024-02-04
tabGAP read_file: e0 for element Al type 1 is -0.0481007
tabGAP read_file: expecting to read in 0 2b potentials and 1 3b potentials
tabGAP read_file: reading 3b potential 0: Al Al Al
tabGAP read_file: done
tabGAP coeff: done reading coefficients
Reading eam/fs potential file Al.eam.fs with DATE: 2024-02-04
WARNING: New thermo_style command, previous thermo_modify settings will be lost (src/output.cpp:912)
Neighbor list info ...
  update: every = 1 steps, delay = 0 steps, check = yes
  max neighbors/atom: 2000, page size: 100000
  master list distance cutoff = 6.2
  ghost atom cutoff = 6.2
  2 neighbor lists, perpetual/occasional/extra = 2 0 0
  (1) pair tabgap, perpetual
      attributes: full, newton on
      pair build: full/nsq
      stencil: none
      bin: none
  (2) pair eam/fs, perpetual, half/full from (1)
      attributes: half, newton on, cut 6.2
      pair build: halffull/newton/tri
      stencil: none
      bin: none
Setting up Verlet run ...
  Unit style    : metal
  Current step  : 0
  Time step     : 0.001
Per MPI rank memory allocation (min/avg/max) = 3.952 | 3.953 | 3.953 Mbytes
   Step          Temp          PotEng         Press         f_avp[1]       f_avp[2]       f_avp[3]       f_avp[4]       f_avp[5]       f_avp[6]   
         0   299.12517     -14801.104     -8097.2288      0              0              0              0              0              0            
     40000   305.13634     -14801.885     -8124.4608     -9949.568      -5228.553      -9353.7554      24.962272     -5.1794871     -6.4540193    
     80000   298.08129     -14806.079     -8600.2385     -9980.8593     -5226.3253     -9354.6951     -6.8793357     -10.429737      9.1393981    
    120000   302.4423      -14802.62      -8189.0929     -9955.4632     -5239.7599     -9366.4099      3.826117      -6.7880894      18.786365    
Loop time of 420.897 on 40 procs for 120000 steps with 4000 atoms

Performance: 24.633 ns/day, 0.974 hours/ns, 285.105 timesteps/s, 1.140 Matom-step/s
99.5% CPU use with 40 MPI tasks x 1 OpenMP threads

MPI task timing breakdown:
Section |  min time  |  avg time  |  max time  |%varavg| %total
---------------------------------------------------------------
Pair    | 409.83     | 410.3      | 410.91     |   1.3 | 97.48
Neigh   | 0.39003    | 0.3967     | 0.4037     |   0.9 |  0.09
Comm    | 7.3566     | 8.1065     | 8.8701     |  13.5 |  1.93
Output  | 0.00016499 | 0.00018287 | 0.00024443 |   0.0 |  0.00
Modify  | 0.68336    | 0.7001     | 0.72889    |   1.4 |  0.17
Other   |            | 1.395      |            |       |  0.33

Nlocal:            100 ave         102 max          98 min
Histogram: 5 0 5 0 0 20 0 5 0 5
Nghost:        784.775 ave         791 max         780 min
Histogram: 3 4 7 4 7 7 4 1 1 2
Neighs:        2740.15 ave        2811 max        2670 min
Histogram: 2 3 2 7 7 6 4 4 2 3
FullNghs:       5480.3 ave        5614 max        5348 min
Histogram: 2 3 4 2 8 10 3 3 3 2

Total # of neighbors = 219212
Ave neighs/atom = 54.803
Neighbor list builds = 930
Dangerous builds = 0
  using 1 OpenMP thread(s) per MPI task

The 'box' command has been removed and will be ignored

Reading restart file ...
  restart file = 22 Jul 2025, LAMMPS = 22 Jul 2025
  restoring atom style atomic from restart
  triclinic box = (-0.27279974 -0.2286871 -0.24006881) to (40.7728 40.728687 40.740069) with tilt (0 0 0)
  5 by 2 by 4 MPI processor grid
  pair style hybrid/overlay stores no restart info
  4000 atoms
  read_restart CPU = 0.007 seconds
tabGAP coeff: type 1 is element Al
tabGAP read_file: reading potential file...
Reading tabgap potential file Al.tabgap with DATE: 2024-02-04
tabGAP read_file: e0 for element Al type 1 is -0.0481007
tabGAP read_file: expecting to read in 0 2b potentials and 1 3b potentials
tabGAP read_file: reading 3b potential 0: Al Al Al
tabGAP read_file: done
tabGAP coeff: done reading coefficients
Reading eam/fs potential file Al.eam.fs with DATE: 2024-02-04
Changing box ...
  triclinic box = (-0.27279974 -0.2286871 -0.24006881) to (40.7728 41.138261 40.740069) with tilt (0 0 0)
  triclinic box = (-0.27279974 -0.2286871 -0.24006881) to (40.7728 41.138261 40.740069) with tilt (0 0 0)
Neighbor list info ...
  update: every = 1 steps, delay = 0 steps, check = yes
  max neighbors/atom: 2000, page size: 100000
  master list distance cutoff = 6.2
  ghost atom cutoff = 6.2
  2 neighbor lists, perpetual/occasional/extra = 2 0 0
  (1) pair tabgap, perpetual
      attributes: full, newton on
      pair build: full/nsq
      stencil: none
      bin: none
  (2) pair eam/fs, perpetual, half/full from (1)
      attributes: half, newton on, cut 6.2
      pair build: halffull/newton/tri
      stencil: none
      bin: none
Setting up Verlet run ...
  Unit style    : metal
  Current step  : 0
  Time step     : 0.001
Per MPI rank memory allocation (min/avg/max) = 3.952 | 3.952 | 3.953 Mbytes
   Step          Temp          PotEng         Press         f_avp[1]       f_avp[2]       f_avp[3]       f_avp[4]       f_avp[5]       f_avp[6]   
         0   303.03556     -14782.166     -20966.918      0              0              0              0              0              0            
     40000   299.25753     -14772.475     -20155.071     -19691.859     -22228.752     -19126.353      21.754404     -10.71131       2.5850037    
     80000   293.79097     -14771.651     -20092.24      -19697.405     -22234.026     -19178.391     -2.2676264     -4.3259769     -4.8310688    
    120000   302.68153     -14776.382     -20417.007     -19682.123     -22222.768     -19178.899      6.1525696      16.370874     -9.4880516    
    160000   292.44523     -14775.283     -20408.198     -19705.9       -22241.266     -19164.823     -5.449269      -22.803136     -3.3218761    
    200000   303.06901     -14776.044     -20357.163     -19686.359     -22269.284     -19174.315     -2.0862707     -11.392909      10.890282    
    240000   295.76453     -14773.211     -20249.179     -19668.296     -22220.588     -19135.62       2.0479212      2.1979602      2.1245639    
    280000   299.6067      -14777.159     -20467.376     -19701.941     -22230.602     -19183.163     -1.6007362     -14.044815      2.6190758    
    320000   299.7194      -14775.152     -20306.919     -19669.395     -22210.219     -19140.983      5.7129836      12.592435      0.40781768   
    360000   300.98416     -14778.573     -20708.539     -19676.425     -22217.364     -19160.762      14.300608      24.350838      9.0353488    
    400000   298.71861     -14774.303     -20186.682     -19698.568     -22230.81      -19138.392     -20.874391      20.318444      25.016519    
Loop time of 1399.32 on 40 procs for 400000 steps with 4000 atoms

Performance: 24.698 ns/day, 0.972 hours/ns, 285.854 timesteps/s, 1.143 Matom-step/s
99.4% CPU use with 40 MPI tasks x 1 OpenMP threads

MPI task timing breakdown:
Section |  min time  |  avg time  |  max time  |%varavg| %total
---------------------------------------------------------------
Pair    | 1363       | 1364.3     | 1366.9     |   2.4 | 97.50
Neigh   | 1.3821     | 1.4002     | 1.4229     |   1.2 |  0.10
Comm    | 23.716     | 26.624     | 29.176     |  26.2 |  1.90
Output  | 0.00066324 | 0.000708   | 0.00089728 |   0.0 |  0.00
Modify  | 2.2754     | 2.3572     | 2.6481     |   4.3 |  0.17
Other   |            | 4.617      |            |       |  0.33

Nlocal:            100 ave         105 max          96 min
Histogram: 1 3 2 5 16 8 3 1 0 1
Nghost:         786.05 ave         793 max         781 min
Histogram: 5 6 2 3 6 9 4 3 0 2
Neighs:         2723.5 ave        2854 max        2567 min
Histogram: 1 2 1 4 7 9 10 4 0 2
FullNghs:         5447 ave        5747 max        5214 min
Histogram: 2 2 4 4 15 8 3 1 0 1

Total # of neighbors = 217880
Ave neighs/atom = 54.47
Neighbor list builds = 3288
Dangerous builds = 0
tabGAP coeff: type 1 is element Al
tabGAP read_file: reading potential file...
Reading tabgap potential file Al.tabgap with DATE: 2024-02-04
tabGAP read_file: e0 for element Al type 1 is -0.0481007
tabGAP read_file: expecting to read in 0 2b potentials and 1 3b potentials
tabGAP read_file: reading 3b potential 0: Al Al Al
tabGAP read_file: done
tabGAP coeff: done reading coefficients
Reading eam/fs potential file Al.eam.fs with DATE: 2024-02-04
WARNING: New thermo_style command, previous thermo_modify settings will be lost (src/output.cpp:912)
Neighbor list info ...
  update: every = 1 steps, delay = 0 steps, check = yes
  max neighbors/atom: 2000, page size: 100000
  master list distance cutoff = 6.2
  ghost atom cutoff = 6.2
  2 neighbor lists, perpetual/occasional/extra = 2 0 0
  (1) pair tabgap, perpetual
      attributes: full, newton on
      pair build: full/nsq
      stencil: none
      bin: none
  (2) pair eam/fs, perpetual, half/full from (1)
      attributes: half, newton on, cut 6.2
      pair build: halffull/newton/tri
      stencil: none
      bin: none
Setting up Verlet run ...
  Unit style    : metal
  Current step  : 0
  Time step     : 0.001
Per MPI rank memory allocation (min/avg/max) = 3.952 | 3.952 | 3.953 Mbytes
   Step          Temp          PotEng         Press         f_avp[1]       f_avp[2]       f_avp[3]       f_avp[4]       f_avp[5]       f_avp[6]   
         0   298.71861     -14774.303     -20186.682      0              0              0              0              0              0            
     40000   299.30198     -14773.851     -20204.853     -19693.659     -22233.861     -19184.346      6.605782      -0.74711768    -0.27910504   
     80000   296.28411     -14779.535     -20779.807     -19695.27      -22252.901     -19198.829     -1.9718948     -1.9765858     -16.099603    
    120000   298.50746     -14778.92      -20717.326     -19686.787     -22255.837     -19164.548     -3.784944       6.7531347     -3.319197     
Loop time of 405.591 on 40 procs for 120000 steps with 4000 atoms

Performance: 25.563 ns/day, 0.939 hours/ns, 295.865 timesteps/s, 1.183 Matom-step/s
99.4% CPU use with 40 MPI tasks x 1 OpenMP threads

MPI task timing breakdown:
Section |  min time  |  avg time  |  max time  |%varavg| %total
---------------------------------------------------------------
Pair    | 394.73     | 395.43     | 395.89     |   1.7 | 97.50
Neigh   | 0.38092    | 0.39531    | 0.40949    |   2.1 |  0.10
Comm    | 7.166      | 7.7324     | 8.8689     |  15.8 |  1.91
Output  | 0.00013686 | 0.0001545  | 0.00018398 |   0.0 |  0.00
Modify  | 0.63833    | 0.67416    | 0.78495    |   3.5 |  0.17
Other   |            | 1.354      |            |       |  0.33

Nlocal:            100 ave         103 max          96 min
Histogram: 1 0 1 0 12 15 0 5 5 1
Nghost:          785.6 ave         795 max         779 min
Histogram: 4 2 7 7 3 8 6 1 0 2
Neighs:        2722.85 ave        2827 max        2600 min
Histogram: 2 1 3 5 6 7 6 4 3 3
FullNghs:       5445.7 ave        5623 max        5224 min
Histogram: 1 0 1 4 8 15 2 3 5 1

Total # of neighbors = 217828
Ave neighs/atom = 54.457
Neighbor list builds = 973
Dangerous builds = 0
  using 1 OpenMP thread(s) per MPI task

The 'box' command has been removed and will be ignored

Reading restart file ...
  restart file = 22 Jul 2025, LAMMPS = 22 Jul 2025
  restoring atom style atomic from restart
  triclinic box = (-0.27279974 -0.2286871 -0.24006881) to (40.7728 40.728687 40.740069) with tilt (0 0 0)
  5 by 2 by 4 MPI processor grid
  pair style hybrid/overlay stores no restart info
  4000 atoms
  read_restart CPU = 0.005 seconds
tabGAP coeff: type 1 is element Al
tabGAP read_file: reading potential file...
Reading tabgap potential file Al.tabgap with DATE: 2024-02-04
tabGAP read_file: e0 for element Al type 1 is -0.0481007
tabGAP read_file: expecting to read in 0 2b potentials and 1 3b potentials
tabGAP read_file: reading 3b potential 0: Al Al Al
tabGAP read_file: done
tabGAP coeff: done reading coefficients
Reading eam/fs potential file Al.eam.fs with DATE: 2024-02-04
Changing box ...
  triclinic box = (-0.27279974 -0.2286871 -0.24006881) to (40.7728 40.728687 40.330267) with tilt (0 0 0)
Neighbor list info ...
  update: every = 1 steps, delay = 0 steps, check = yes
  max neighbors/atom: 2000, page size: 100000
  master list distance cutoff = 6.2
  ghost atom cutoff = 6.2
  2 neighbor lists, perpetual/occasional/extra = 2 0 0
  (1) pair tabgap, perpetual
      attributes: full, newton on
      pair build: full/nsq
      stencil: none
      bin: none
  (2) pair eam/fs, perpetual, half/full from (1)
      attributes: half, newton on, cut 6.2
      pair build: halffull/newton/tri
      stencil: none
      bin: none
Setting up Verlet run ...
  Unit style    : metal
  Current step  : 0
  Time step     : 0.001
Per MPI rank memory allocation (min/avg/max) = 3.952 | 3.953 | 3.953 Mbytes
   Step          Temp          PotEng         Press         f_avp[1]       f_avp[2]       f_avp[3]       f_avp[4]       f_avp[5]       f_avp[6]   
         0   303.03556     -14796.368     -7649.8976      0              0              0              0              0              0            
     40000   304.4654      -14804.423     -8395.8628     -9953.9866     -9136.5961     -5449.4344     -5.8083239      7.6754806     -9.7390197    
     80000   299.19956     -14803.212     -8295.8177     -10001.994     -9163.229      -5471.5239     -5.5485331      5.1334754      16.984917    
    120000   300.969       -14799.593     -8030.6944     -9979.5974     -9152.5218     -5459.6658      5.771454       21.077538      16.48845     
    160000   294.17865     -14797.44      -7943.3488     -10001.469     -9141.782      -5456.53       -13.296847     -12.629239      10.796532    
    200000   300.68322     -14800.484     -8029.8073     -9962.4003     -9136.7238     -5433.3071     -5.3926362      16.61882      -0.47288393   
    240000   293.91745     -14801.559     -8233.6393     -10006.506     -9157.7641     -5449.0967      19.23719       5.7503931     -1.5427511    
    280000   307.55095     -14804.31      -8313.9536     -9985.1384     -9130.3928     -5463.6593      2.7883218      6.6700591     -7.5308381    
    320000   300.28817     -14802.257     -8273.0369     -9938.9881     -9132.8264     -5405.972      -1.5689603     -5.9191844     -1.8139989    
    360000   304.81824     -14798.039     -7866.1181     -9983.6207     -9143.3446     -5437.7025      11.862934      6.3796683      0.76621499   
    400000   299.58628     -14803.389     -8377.7676     -9955.97       -9118.1921     -5409.666       18.640353      7.882869       4.6977835    
Loop time of 1400.64 on 40 procs for 400000 steps with 4000 atoms

Performance: 24.674 ns/day, 0.973 hours/ns, 285.584 timesteps/s, 1.142 Matom-step/s
99.5% CPU use with 40 MPI tasks x 1 OpenMP threads

MPI task timing breakdown:
Section |  min time  |  avg time  |  max time  |%varavg| %total
---------------------------------------------------------------
Pair    | 1363.9     | 1365.3     | 1367.2     |   2.2 | 97.47
Neigh   | 1.3047     | 1.3308     | 1.3592     |   1.9 |  0.10
Comm    | 24.599     | 27.063     | 29.523     |  24.8 |  1.93
Output  | 0.00057007 | 0.00061836 | 0.00083428 |   0.0 |  0.00
Modify  | 2.2586     | 2.3482     | 2.6798     |   5.4 |  0.17
Other   |            | 4.641      |            |       |  0.33

Nlocal:            100 ave         102 max          98 min
Histogram: 2 0 7 0 0 22 0 7 0 2
Nghost:          795.2 ave         813 max         788 min
Histogram: 7 9 9 6 3 2 1 0 2 1
Neighs:        2740.62 ave        2810 max        2620 min
Histogram: 1 0 2 4 5 2 10 4 8 4
FullNghs:      5481.25 ave        5611 max        5355 min
Histogram: 2 1 4 4 9 10 3 5 0 2

Total # of neighbors = 219250
Ave neighs/atom = 54.8125
Neighbor list builds = 3092
Dangerous builds = 0
tabGAP coeff: type 1 is element Al
tabGAP read_file: reading potential file...
Reading tabgap potential file Al.tabgap with DATE: 2024-02-04
tabGAP read_file: e0 for element Al type 1 is -0.0481007
tabGAP read_file: expecting to read in 0 2b potentials and 1 3b potentials
tabGAP read_file: reading 3b potential 0: Al Al Al
tabGAP read_file: done
tabGAP coeff: done reading coefficients
Reading eam/fs potential file Al.eam.fs with DATE: 2024-02-04
WARNING: New thermo_style command, previous thermo_modify settings will be lost (src/output.cpp:912)
Neighbor list info ...
  update: every = 1 steps, delay = 0 steps, check = yes
  max neighbors/atom: 2000, page size: 100000
  master list distance cutoff = 6.2
  ghost atom cutoff = 6.2
  2 neighbor lists, perpetual/occasional/extra = 2 0 0
  (1) pair tabgap, perpetual
      attributes: full, newton on
      pair build: full/nsq
      stencil: none
      bin: none
  (2) pair eam/fs, perpetual, half/full from (1)
      attributes: half, newton on, cut 6.2
      pair build: halffull/newton/tri
      stencil: none
      bin: none
Setting up Verlet run ...
  Unit style    : metal
  Current step  : 0
  Time step     : 0.001
Per MPI rank memory allocation (min/avg/max) = 3.952 | 3.953 | 3.953 Mbytes
   Step          Temp          PotEng         Press         f_avp[1]       f_avp[2]       f_avp[3]       f_avp[4]       f_avp[5]       f_avp[6]   
         0   299.58628     -14803.389     -8377.7676      0              0              0              0              0              0            
     40000   307.72713     -14800.696     -8092.175      -9988.5207     -9138.3583     -5469.795       6.9417627      11.832227     -2.9762369    
     80000   298.66179     -14804.777     -8493.3859     -9984.8466     -9139.1018     -5439.2487      1.0356741     -0.83658154     13.557576    
    120000   301.18        -14799.624     -8001.8532     -10019.687     -9139.4074     -5464.758      -2.6380386     -1.5286695     -4.6131884    
Loop time of 421.567 on 40 procs for 120000 steps with 4000 atoms

Performance: 24.594 ns/day, 0.976 hours/ns, 284.652 timesteps/s, 1.139 Matom-step/s
99.4% CPU use with 40 MPI tasks x 1 OpenMP threads

MPI task timing breakdown:
Section |  min time  |  avg time  |  max time  |%varavg| %total
---------------------------------------------------------------
Pair    | 410.43     | 410.91     | 411.63     |   1.5 | 97.47
Neigh   | 0.39139    | 0.39965    | 0.40802    |   1.1 |  0.09
Comm    | 7.3737     | 8.1631     | 8.9979     |  13.8 |  1.94
Output  | 0.00018794 | 0.00021059 | 0.000266   |   0.0 |  0.00
Modify  | 0.67661    | 0.70629    | 0.79865    |   2.9 |  0.17
Other   |            | 1.385      |            |       |  0.33

Nlocal:            100 ave         103 max          97 min
Histogram: 2 0 0 10 0 16 9 0 2 1
Nghost:        796.775 ave         810 max         786 min
Histogram: 3 5 4 4 6 8 3 4 1 2
Neighs:        2740.68 ave        2842 max        2624 min
Histogram: 1 0 2 5 8 9 8 6 0 1
FullNghs:      5481.35 ave        5688 max        5321 min
Histogram: 2 0 8 7 10 6 4 2 0 1

Total # of neighbors = 219254
Ave neighs/atom = 54.8135
Neighbor list builds = 928
Dangerous builds = 0
  using 1 OpenMP thread(s) per MPI task

The 'box' command has been removed and will be ignored

Reading restart file ...
  restart file = 22 Jul 2025, LAMMPS = 22 Jul 2025
  restoring atom style atomic from restart
  triclinic box = (-0.27279974 -0.2286871 -0.24006881) to (40.7728 40.728687 40.740069) with tilt (0 0 0)
  5 by 2 by 4 MPI processor grid
  pair style hybrid/overlay stores no restart info
  4000 atoms
  read_restart CPU = 0.007 seconds
tabGAP coeff: type 1 is element Al
tabGAP read_file: reading potential file...
Reading tabgap potential file Al.tabgap with DATE: 2024-02-04
tabGAP read_file: e0 for element Al type 1 is -0.0481007
tabGAP read_file: expecting to read in 0 2b potentials and 1 3b potentials
tabGAP read_file: reading 3b potential 0: Al Al Al
tabGAP read_file: done
tabGAP coeff: done reading coefficients
Reading eam/fs potential file Al.eam.fs with DATE: 2024-02-04
Changing box ...
  triclinic box = (-0.27279974 -0.2286871 -0.24006881) to (40.7728 40.728687 41.14987) with tilt (0 0 0)
Neighbor list info ...
  update: every = 1 steps, delay = 0 steps, check = yes
  max neighbors/atom: 2000, page size: 100000
  master list distance cutoff = 6.2
  ghost atom cutoff = 6.2
  2 neighbor lists, perpetual/occasional/extra = 2 0 0
  (1) pair tabgap, perpetual
      attributes: full, newton on
      pair build: full/nsq
      stencil: none
      bin: none
  (2) pair eam/fs, perpetual, half/full from (1)
      attributes: half, newton on, cut 6.2
      pair build: halffull/newton/tri
      stencil: none
      bin: none
Setting up Verlet run ...
  Unit style    : metal
  Current step  : 0
  Time step     : 0.001
Per MPI rank memory allocation (min/avg/max) = 3.951 | 3.952 | 3.952 Mbytes
   Step          Temp          PotEng         Press         f_avp[1]       f_avp[2]       f_avp[3]       f_avp[4]       f_avp[5]       f_avp[6]   
         0   303.03556     -14782.187     -20960.228      0              0              0              0              0              0            
     40000   303.60098     -14776.312     -20339.345     -19702.682     -18986.553     -22398.71       19.224815     -12.287775      10.538867    
     80000   305.03461     -14776.09      -20339.992     -19663.069     -18974.556     -22386.622     -17.024111      3.5984624      0.16000805   
    120000   295.48386     -14775.709     -20468.524     -19684.075     -18960.489     -22407.178      5.9259425     -25.399889     -2.095178     
    160000   306.37214     -14775.364     -20299.249     -19685.4       -18999.761     -22403.142     -20.5598       -4.0743209      6.5383565    
    200000   305.11798     -14774.314     -20271.878     -19730.081     -18992.003     -22396.283     -3.3203161      14.31374      -2.6914947    
    240000   301.61524     -14778.199     -20626.153     -19676.3       -18962.079     -22411.701      9.2012626     -8.1355375     -7.9757051    
    280000   298.36741     -14774.669     -20299.515     -19697.254     -18974.165     -22427.068      1.929183       1.1711769     -5.6369807    
    320000   307.60288     -14778.275     -20584.438     -19668.921     -18954.278     -22406.26       0.86219567     0.2823993      18.337485    
    360000   299.71544     -14770.936     -19837.468     -19708.996     -18966.791     -22414.58       3.8400954      6.2340361     -1.8278634    
    400000   301.66657     -14772.088     -19984.179     -19710.909     -18993.265     -22449.56      -5.0349322      2.7696165     -2.2644542    
Loop time of 1472.9 on 40 procs for 400000 steps with 4000 atoms

Performance: 23.464 ns/day, 1.023 hours/ns, 271.573 timesteps/s, 1.086 Matom-step/s
99.4% CPU use with 40 MPI tasks x 1 OpenMP threads

MPI task timing breakdown:
Section |  min time  |  avg time  |  max time  |%varavg| %total
---------------------------------------------------------------
Pair    | 1422.2     | 1434.1     | 1439.8     |  16.7 | 97.36
Neigh   | 1.3627     | 1.3874     | 1.4153     |   1.8 |  0.09
Comm    | 24.464     | 30.403     | 42.088     | 109.7 |  2.06
Output  | 0.00057111 | 0.00063636 | 0.00084321 |   0.0 |  0.00
Modify  | 2.2822     | 2.3706     | 2.6208     |   4.5 |  0.16
Other   |            | 4.652      |            |       |  0.32

Nlocal:            100 ave         103 max          97 min
Histogram: 2 0 0 10 0 17 7 0 3 1
Nghost:        779.325 ave         785 max         775 min
Histogram: 4 1 5 5 6 7 2 6 3 1
Neighs:        2724.45 ave        2829 max        2634 min
Histogram: 3 4 4 6 7 4 5 3 3 1
FullNghs:       5448.9 ave        5616 max        5277 min
Histogram: 2 0 0 10 5 12 6 2 2 1

Total # of neighbors = 217956
Ave neighs/atom = 54.489
Neighbor list builds = 3276
Dangerous builds = 0
tabGAP coeff: type 1 is element Al
tabGAP read_file: reading potential file...
Reading tabgap potential file Al.tabgap with DATE: 2024-02-04
tabGAP read_file: e0 for element Al type 1 is -0.0481007
tabGAP read_file: expecting to read in 0 2b potentials and 1 3b potentials
tabGAP read_file: reading 3b potential 0: Al Al Al
tabGAP read_file: done
tabGAP coeff: done reading coefficients
Reading eam/fs potential file Al.eam.fs with DATE: 2024-02-04
WARNING: New thermo_style command, previous thermo_modify settings will be lost (src/output.cpp:912)
Neighbor list info ...
  update: every = 1 steps, delay = 0 steps, check = yes
  max neighbors/atom: 2000, page size: 100000
  master list distance cutoff = 6.2
  ghost atom cutoff = 6.2
  2 neighbor lists, perpetual/occasional/extra = 2 0 0
  (1) pair tabgap, perpetual
      attributes: full, newton on
      pair build: full/nsq
      stencil: none
      bin: none
  (2) pair eam/fs, perpetual, half/full from (1)
      attributes: half, newton on, cut 6.2
      pair build: halffull/newton/tri
      stencil: none
      bin: none
Setting up Verlet run ...
  Unit style    : metal
  Current step  : 0
  Time step     : 0.001
Per MPI rank memory allocation (min/avg/max) = 3.951 | 3.952 | 3.952 Mbytes
   Step          Temp          PotEng         Press         f_avp[1]       f_avp[2]       f_avp[3]       f_avp[4]       f_avp[5]       f_avp[6]   
         0   301.66657     -14772.088     -19984.179      0              0              0              0              0              0            
     40000   300.36373     -14777.632     -20527.295     -19668.232     -18990.242     -22409.052      4.6715622     -1.0456304     -10.680336    
     80000   306.8608      -14776.725     -20432.225     -19689.138     -18993.897     -22393.31      -14.526855     -0.75939159    -10.225444    
    120000   304.13686     -14776.203     -20357.09      -19669.899     -18977.663     -22411.76      -2.6088644      1.9043576      11.044611    
Loop time of 421.891 on 40 procs for 120000 steps with 4000 atoms

Performance: 24.575 ns/day, 0.977 hours/ns, 284.433 timesteps/s, 1.138 Matom-step/s
99.5% CPU use with 40 MPI tasks x 1 OpenMP threads

MPI task timing breakdown:
Section |  min time  |  avg time  |  max time  |%varavg| %total
---------------------------------------------------------------
Pair    | 410.88     | 411.34     | 412.11     |   1.4 | 97.50
Neigh   | 0.40688    | 0.41482    | 0.42308    |   1.0 |  0.10
Comm    | 7.1583     | 8.0073     | 8.8468     |  14.4 |  1.90
Output  | 0.00017226 | 0.00019116 | 0.00025783 |   0.0 |  0.00
Modify  | 0.67969    | 0.71179    | 0.78613    |   2.8 |  0.17
Other   |            | 1.412      |            |       |  0.33

Nlocal:            100 ave         103 max          97 min
Histogram: 1 6 0 7 0 12 8 0 4 2
Nghost:        779.475 ave         784 max         774 min
Histogram: 1 0 2 6 5 7 2 10 4 3
Neighs:        2723.15 ave        2810 max        2637 min
Histogram: 1 3 8 2 6 5 6 6 1 2
FullNghs:       5446.3 ave        5615 max        5276 min
Histogram: 1 4 2 7 6 6 6 3 3 2

Total # of neighbors = 217852
Ave neighs/atom = 54.463
Neighbor list builds = 982
Dangerous builds = 0
  using 1 OpenMP thread(s) per MPI task

The 'box' command has been removed and will be ignored

Reading restart file ...
  restart file = 22 Jul 2025, LAMMPS = 22 Jul 2025
  restoring atom style atomic from restart
  triclinic box = (-0.27279974 -0.2286871 -0.24006881) to (40.7728 40.728687 40.740069) with tilt (0 0 0)
  5 by 2 by 4 MPI processor grid
  pair style hybrid/overlay stores no restart info
  4000 atoms
  read_restart CPU = 0.005 seconds
tabGAP coeff: type 1 is element Al
tabGAP read_file: reading potential file...
Reading tabgap potential file Al.tabgap with DATE: 2024-02-04
tabGAP read_file: e0 for element Al type 1 is -0.0481007
tabGAP read_file: expecting to read in 0 2b potentials and 1 3b potentials
tabGAP read_file: reading 3b potential 0: Al Al Al
tabGAP read_file: done
tabGAP coeff: done reading coefficients
Reading eam/fs potential file Al.eam.fs with DATE: 2024-02-04
Changing box ...
  triclinic box = (-0.27279974 -0.2286871 -0.24006881) to (40.7728 40.728687 40.740069) with tilt (0 0 -0.40980138)
Neighbor list info ...
  update: every = 1 steps, delay = 0 steps, check = yes
  max neighbors/atom: 2000, page size: 100000
  master list distance cutoff = 6.2
  ghost atom cutoff = 6.2
  2 neighbor lists, perpetual/occasional/extra = 2 0 0
  (1) pair tabgap, perpetual
      attributes: full, newton on
      pair build: full/nsq
      stencil: none
      bin: none
  (2) pair eam/fs, perpetual, half/full from (1)
      attributes: half, newton on, cut 6.2
      pair build: halffull/newton/tri
      stencil: none
      bin: none
Setting up Verlet run ...
  Unit style    : metal
  Current step  : 0
  Time step     : 0.001
Per MPI rank memory allocation (min/avg/max) = 3.952 | 3.952 | 3.953 Mbytes
   Step          Temp          PotEng         Press         f_avp[1]       f_avp[2]       f_avp[3]       f_avp[4]       f_avp[5]       f_avp[6]   
         0   303.03556     -14790.746     -14557.783      0              0              0              0              0              0            
     40000   300.42649     -14786.879     -14313.107     -15031.038     -14180.176     -14308.309      1.3018018     -4.260723       2669.6393    
     80000   296.98459     -14790.531     -14641.226     -15036.193     -14152.573     -14332.18       4.117455      -3.1898691      2653.2481    
    120000   303.95447     -14789.975     -14513.413     -15035.151     -14152.855     -14334.83       21.141986      0.50116494     2648.6049    
    160000   305.29932     -14788.059     -14308.384     -15053.828     -14167.187     -14344.431     -16.746051      11.179039      2667.2654    
    200000   306.08124     -14787.959     -14300.943     -15027.19      -14182.839     -14337.845      11.688603     -8.9687824      2667.7459    
    240000   301.06199     -14787.949     -14289.166     -15070.773     -14188.413     -14370.346      7.0625195     -12.978429      2679.3803    
    280000   300.99175     -14788.624     -14389.392     -15082.396     -14179.733     -14373.749     -12.050101     -11.57688       2640.5873    
    320000   296.15409     -14792.373     -14788.942     -15043.198     -14181.703     -14323.98       3.8849659      6.1866288      2646.7279    
    360000   301.21315     -14789.504     -14465.598     -15043.148     -14205.895     -14328.857      2.3383589     -0.99131643     2663.2113    
    400000   300.51687     -14788.613     -14465.37      -15029.719     -14171.464     -14328.192      7.2664816     -0.10453796     2673.0468    
Loop time of 1409.94 on 40 procs for 400000 steps with 4000 atoms

Performance: 24.512 ns/day, 0.979 hours/ns, 283.701 timesteps/s, 1.135 Matom-step/s
99.4% CPU use with 40 MPI tasks x 1 OpenMP threads

MPI task timing breakdown:
Section |  min time  |  avg time  |  max time  |%varavg| %total
---------------------------------------------------------------
Pair    | 1373       | 1374.7     | 1376.8     |   2.4 | 97.50
Neigh   | 1.3326     | 1.3549     | 1.3813     |   1.5 |  0.10
Comm    | 24.538     | 26.877     | 29.453     |  25.6 |  1.91
Output  | 0.00059845 | 0.00066638 | 0.00090735 |   0.0 |  0.00
Modify  | 2.2761     | 2.3481     | 2.4747     |   2.9 |  0.17
Other   |            | 4.672      |            |       |  0.33

Nlocal:            100 ave         103 max          97 min
Histogram: 1 2 0 8 0 18 8 0 2 1
Nghost:        784.375 ave         790 max         777 min
Histogram: 1 0 3 9 3 4 11 2 2 5
Neighs:        2730.25 ave        2814 max        2632 min
Histogram: 2 1 1 6 6 7 8 7 0 2
FullNghs:       5460.5 ave        5613 max        5283 min
Histogram: 1 0 3 7 1 16 4 5 1 2

Total # of neighbors = 218420
Ave neighs/atom = 54.605
Neighbor list builds = 3165
Dangerous builds = 0
tabGAP coeff: type 1 is element Al
tabGAP read_file: reading potential file...
Reading tabgap potential file Al.tabgap with DATE: 2024-02-04
tabGAP read_file: e0 for element Al type 1 is -0.0481007
tabGAP read_file: expecting to read in 0 2b potentials and 1 3b potentials
tabGAP read_file: reading 3b potential 0: Al Al Al
tabGAP read_file: done
tabGAP coeff: done reading coefficients
Reading eam/fs potential file Al.eam.fs with DATE: 2024-02-04
WARNING: New thermo_style command, previous thermo_modify settings will be lost (src/output.cpp:912)
Neighbor list info ...
  update: every = 1 steps, delay = 0 steps, check = yes
  max neighbors/atom: 2000, page size: 100000
  master list distance cutoff = 6.2
  ghost atom cutoff = 6.2
  2 neighbor lists, perpetual/occasional/extra = 2 0 0
  (1) pair tabgap, perpetual
      attributes: full, newton on
      pair build: full/nsq
      stencil: none
      bin: none
  (2) pair eam/fs, perpetual, half/full from (1)
      attributes: half, newton on, cut 6.2
      pair build: halffull/newton/tri
      stencil: none
      bin: none
Setting up Verlet run ...
  Unit style    : metal
  Current step  : 0
  Time step     : 0.001
Per MPI rank memory allocation (min/avg/max) = 3.952 | 3.952 | 3.953 Mbytes
   Step          Temp          PotEng         Press         f_avp[1]       f_avp[2]       f_avp[3]       f_avp[4]       f_avp[5]       f_avp[6]   
         0   300.51687     -14788.613     -14465.37       0              0              0              0              0              0            
     40000   296.18412     -14787.409     -14336.085     -15001.72      -14188.525     -14328.108      6.2814484     -12.53576       2660.0512    
     80000   296.70044     -14787.67      -14325.449     -15062.517     -14206.226     -14341.745      3.2444423     -6.9963967      2652.4637    
    120000   294.96188     -14789.931     -14603.863     -15032.761     -14187.846     -14365.093      7.2486982      9.8265504      2652.4181    
Loop time of 421.917 on 40 procs for 120000 steps with 4000 atoms

Performance: 24.574 ns/day, 0.977 hours/ns, 284.416 timesteps/s, 1.138 Matom-step/s
99.5% CPU use with 40 MPI tasks x 1 OpenMP threads

MPI task timing breakdown:
Section |  min time  |  avg time  |  max time  |%varavg| %total
---------------------------------------------------------------
Pair    | 410.85     | 411.37     | 411.88     |   1.2 | 97.50
Neigh   | 0.3991     | 0.40554    | 0.41229    |   0.8 |  0.10
Comm    | 7.3659     | 8.0191     | 8.8236     |  13.9 |  1.90
Output  | 0.00016038 | 0.00018114 | 0.00026652 |   0.0 |  0.00
Modify  | 0.68056    | 0.70055    | 0.7384     |   1.6 |  0.17
Other   |            | 1.418      |            |       |  0.34

Nlocal:            100 ave         102 max          98 min
Histogram: 1 0 10 0 0 19 0 8 0 2
Nghost:        785.375 ave         798 max         778 min
Histogram: 1 4 12 7 8 3 1 1 1 2
Neighs:        2728.93 ave        2806 max        2643 min
Histogram: 2 1 2 7 4 9 7 4 1 3
FullNghs:      5457.85 ave        5566 max        5345 min
Histogram: 1 2 6 3 5 11 3 5 2 2

Total # of neighbors = 218314
Ave neighs/atom = 54.5785
Neighbor list builds = 955
Dangerous builds = 0
  using 1 OpenMP thread(s) per MPI task

The 'box' command has been removed and will be ignored

Reading restart file ...
  restart file = 22 Jul 2025, LAMMPS = 22 Jul 2025
  restoring atom style atomic from restart
  triclinic box = (-0.27279974 -0.2286871 -0.24006881) to (40.7728 40.728687 40.740069) with tilt (0 0 0)
  5 by 2 by 4 MPI processor grid
  pair style hybrid/overlay stores no restart info
  4000 atoms
  read_restart CPU = 0.011 seconds
tabGAP coeff: type 1 is element Al
tabGAP read_file: reading potential file...
Reading tabgap potential file Al.tabgap with DATE: 2024-02-04
tabGAP read_file: e0 for element Al type 1 is -0.0481007
tabGAP read_file: expecting to read in 0 2b potentials and 1 3b potentials
tabGAP read_file: reading 3b potential 0: Al Al Al
tabGAP read_file: done
tabGAP coeff: done reading coefficients
Reading eam/fs potential file Al.eam.fs with DATE: 2024-02-04
Changing box ...
  triclinic box = (-0.27279974 -0.2286871 -0.24006881) to (40.7728 40.728687 40.740069) with tilt (0 0 0.40980138)
Neighbor list info ...
  update: every = 1 steps, delay = 0 steps, check = yes
  max neighbors/atom: 2000, page size: 100000
  master list distance cutoff = 6.2
  ghost atom cutoff = 6.2
  2 neighbor lists, perpetual/occasional/extra = 2 0 0
  (1) pair tabgap, perpetual
      attributes: full, newton on
      pair build: full/nsq
      stencil: none
      bin: none
  (2) pair eam/fs, perpetual, half/full from (1)
      attributes: half, newton on, cut 6.2
      pair build: halffull/newton/tri
      stencil: none
      bin: none
Setting up Verlet run ...
  Unit style    : metal
  Current step  : 0
  Time step     : 0.001
Per MPI rank memory allocation (min/avg/max) = 3.952 | 3.952 | 3.953 Mbytes
   Step          Temp          PotEng         Press         f_avp[1]       f_avp[2]       f_avp[3]       f_avp[4]       f_avp[5]       f_avp[6]   
         0   303.03556     -14790.528     -14537.647      0              0              0              0              0              0            
     40000   307.86496     -14790.698     -14544.369     -15037.808     -14163.573     -14319.643     -16.557185      11.954062     -2657.6583    
     80000   306.46973     -14790.737     -14558.616     -15016.874     -14189.799     -14344.153      0.89026079    -1.4816451     -2645.6786    
    120000   300.88813     -14789.507     -14508.114     -15063.593     -14173.622     -14364.966     -0.34430545     5.634226      -2658.3228    
    160000   296.57427     -14784.649     -14065.433     -15031.935     -14200.249     -14374.692     -1.653437      -12.106957     -2641.5486    
    200000   303.85756     -14791.265     -14659.426     -15060.194     -14205.144     -14354.067     -13.426188      4.6483823     -2663.1648    
    240000   301.10446     -14791.958     -14737.652     -15055.726     -14181.529     -14374.736     -6.9980108     -18.435703     -2651.2911    
    280000   297.08122     -14787.281     -14291.978     -15048.07      -14157.339     -14354.419      1.5921452      13.287581     -2670.1249    
    320000   296.5312      -14792.488     -14837.641     -15058.296     -14187.353     -14331.764      4.0426247     -6.9729059     -2654.1785    
    360000   300.06934     -14791.444     -14683.136     -15030.001     -14157.14      -14328.04      -4.0377201     -20.328227     -2634.2634    
    400000   303.00722     -14789.213     -14463.231     -15030.699     -14143.936     -14319.723     -7.0291536     -10.568006     -2662.6738    
Loop time of 1404.08 on 40 procs for 400000 steps with 4000 atoms

Performance: 24.614 ns/day, 0.975 hours/ns, 284.884 timesteps/s, 1.140 Matom-step/s
99.4% CPU use with 40 MPI tasks x 1 OpenMP threads

MPI task timing breakdown:
Section |  min time  |  avg time  |  max time  |%varavg| %total
---------------------------------------------------------------
Pair    | 1367.5     | 1369.1     | 1370.9     |   2.3 | 97.51
Neigh   | 1.3381     | 1.3597     | 1.3816     |   1.4 |  0.10
Comm    | 24.309     | 26.685     | 29.16      |  26.4 |  1.90
Output  | 0.00058663 | 0.00064306 | 0.00088719 |   0.0 |  0.00
Modify  | 2.2798     | 2.3414     | 2.4662     |   2.6 |  0.17
Other   |            | 4.636      |            |       |  0.33

Nlocal:            100 ave         103 max          97 min
Histogram: 3 0 0 7 0 20 7 0 0 3
Nghost:        785.775 ave         792 max         780 min
Histogram: 5 5 2 2 4 9 2 4 5 2
Neighs:        2730.18 ave        2808 max        2640 min
Histogram: 5 2 3 3 3 3 7 6 5 3
FullNghs:      5460.35 ave        5634 max        5274 min
Histogram: 2 1 0 6 6 14 6 2 0 3

Total # of neighbors = 218414
Ave neighs/atom = 54.6035
Neighbor list builds = 3184
Dangerous builds = 0
tabGAP coeff: type 1 is element Al
tabGAP read_file: reading potential file...
Reading tabgap potential file Al.tabgap with DATE: 2024-02-04
tabGAP read_file: e0 for element Al type 1 is -0.0481007
tabGAP read_file: expecting to read in 0 2b potentials and 1 3b potentials
tabGAP read_file: reading 3b potential 0: Al Al Al
tabGAP read_file: done
tabGAP coeff: done reading coefficients
Reading eam/fs potential file Al.eam.fs with DATE: 2024-02-04
WARNING: New thermo_style command, previous thermo_modify settings will be lost (src/output.cpp:912)
Neighbor list info ...
  update: every = 1 steps, delay = 0 steps, check = yes
  max neighbors/atom: 2000, page size: 100000
  master list distance cutoff = 6.2
  ghost atom cutoff = 6.2
  2 neighbor lists, perpetual/occasional/extra = 2 0 0
  (1) pair tabgap, perpetual
      attributes: full, newton on
      pair build: full/nsq
      stencil: none
      bin: none
  (2) pair eam/fs, perpetual, half/full from (1)
      attributes: half, newton on, cut 6.2
      pair build: halffull/newton/tri
      stencil: none
      bin: none
Setting up Verlet run ...
  Unit style    : metal
  Current step  : 0
  Time step     : 0.001
Per MPI rank memory allocation (min/avg/max) = 3.952 | 3.952 | 3.953 Mbytes
   Step          Temp          PotEng         Press         f_avp[1]       f_avp[2]       f_avp[3]       f_avp[4]       f_avp[5]       f_avp[6]   
         0   303.00722     -14789.213     -14463.231      0              0              0              0              0              0            
     40000   301.0396      -14788.819     -14448.467     -15014.482     -14175.588     -14302.395      5.5787352     -4.6588801     -2650.6261    
     80000   292.54853     -14785.682     -14232.596     -15065.977     -14172.462     -14339.249      5.0678528      1.2210929     -2649.051     
    120000   303.97376     -14791.695     -14674.139     -15039.56      -14169.009     -14344.081      1.3086097      3.4562349     -2690.0031    
Loop time of 423.678 on 40 procs for 120000 steps with 4000 atoms

Performance: 24.471 ns/day, 0.981 hours/ns, 283.234 timesteps/s, 1.133 Matom-step/s
99.4% CPU use with 40 MPI tasks x 1 OpenMP threads

MPI task timing breakdown:
Section |  min time  |  avg time  |  max time  |%varavg| %total
---------------------------------------------------------------
Pair    | 412.6      | 413.11     | 413.72     |   1.3 | 97.51
Neigh   | 0.39943    | 0.40655    | 0.41402    |   1.0 |  0.10
Comm    | 7.3071     | 8.0399     | 8.8967     |  14.3 |  1.90
Output  | 0.00017992 | 0.00020924 | 0.00028118 |   0.0 |  0.00
Modify  | 0.68022    | 0.70589    | 0.74865    |   1.8 |  0.17
Other   |            | 1.416      |            |       |  0.33

Nlocal:            100 ave         103 max          97 min
Histogram: 2 1 0 6 0 20 9 0 1 1
Nghost:        787.025 ave         797 max         781 min
Histogram: 5 7 5 8 2 5 4 2 0 2
Neighs:        2728.78 ave        2814 max        2617 min
Histogram: 1 0 2 5 7 8 4 9 3 1
FullNghs:      5457.55 ave        5645 max        5268 min
Histogram: 2 0 2 5 11 10 8 0 1 1

Total # of neighbors = 218302
Ave neighs/atom = 54.5755
Neighbor list builds = 951
Dangerous builds = 0
  using 1 OpenMP thread(s) per MPI task

The 'box' command has been removed and will be ignored

Reading restart file ...
  restart file = 22 Jul 2025, LAMMPS = 22 Jul 2025
  restoring atom style atomic from restart
  triclinic box = (-0.27279974 -0.2286871 -0.24006881) to (40.7728 40.728687 40.740069) with tilt (0 0 0)
  5 by 2 by 4 MPI processor grid
  pair style hybrid/overlay stores no restart info
  4000 atoms
  read_restart CPU = 0.005 seconds
tabGAP coeff: type 1 is element Al
tabGAP read_file: reading potential file...
Reading tabgap potential file Al.tabgap with DATE: 2024-02-04
tabGAP read_file: e0 for element Al type 1 is -0.0481007
tabGAP read_file: expecting to read in 0 2b potentials and 1 3b potentials
tabGAP read_file: reading 3b potential 0: Al Al Al
tabGAP read_file: done
tabGAP coeff: done reading coefficients
Reading eam/fs potential file Al.eam.fs with DATE: 2024-02-04
Changing box ...
  triclinic box = (-0.27279974 -0.2286871 -0.24006881) to (40.7728 40.728687 40.740069) with tilt (0 -0.40980138 0)
Neighbor list info ...
  update: every = 1 steps, delay = 0 steps, check = yes
  max neighbors/atom: 2000, page size: 100000
  master list distance cutoff = 6.2
  ghost atom cutoff = 6.2
  2 neighbor lists, perpetual/occasional/extra = 2 0 0
  (1) pair tabgap, perpetual
      attributes: full, newton on
      pair build: full/nsq
      stencil: none
      bin: none
  (2) pair eam/fs, perpetual, half/full from (1)
      attributes: half, newton on, cut 6.2
      pair build: halffull/newton/tri
      stencil: none
      bin: none
Setting up Verlet run ...
  Unit style    : metal
  Current step  : 0
  Time step     : 0.001
Per MPI rank memory allocation (min/avg/max) = 3.952 | 3.952 | 3.953 Mbytes
   Step          Temp          PotEng         Press         f_avp[1]       f_avp[2]       f_avp[3]       f_avp[4]       f_avp[5]       f_avp[6]   
         0   303.03556     -14790.554     -14542.147      0              0              0              0              0              0            
     40000   308.94871     -14789.08      -14378.259     -14913.612     -14224.368     -14295.833      13.092083      2601.1289     -3.2367765    
     80000   303.1507      -14791.47      -14653.565     -14937.927     -14260.221     -14341.878      1.7926978      2599.0713      1.448335     
    120000   302.28666     -14791.455     -14672.879     -14897.83      -14254.308     -14320.383     -2.1870505      2611.8495     -3.6385274    
    160000   300.52314     -14790.162     -14528.78      -14976.094     -14290.361     -14360.369     -1.6568639      2599.7565      0.92583451   
    200000   297.53021     -14786.959     -14274.371     -14941.921     -14263.986     -14342.074      22.331948      2605.6337      7.4300674    
    240000   299.15208     -14790.131     -14524.255     -14985.644     -14288.223     -14351.502      1.2971672      2593.848      -5.7441146    
    280000   303.44298     -14793.497     -14848.902     -14930.672     -14275.406     -14343.488     -5.6634889      2604.7428     -0.37461056   
    320000   296.97558     -14784.763     -14072.926     -14962.573     -14289.659     -14341.507      22.724487      2603.8583     -16.185387    
    360000   298.43932     -14790.755     -14587.854     -14934.357     -14274.079     -14356.499     -13.106861      2603.1605      23.634221    
    400000   307.64311     -14790.924     -14628.968     -14918.326     -14237.622     -14312.362     -15.464694      2602.2642      2.3950595    
Loop time of 1404.68 on 40 procs for 400000 steps with 4000 atoms

Performance: 24.603 ns/day, 0.975 hours/ns, 284.762 timesteps/s, 1.139 Matom-step/s
99.4% CPU use with 40 MPI tasks x 1 OpenMP threads

MPI task timing breakdown:
Section |  min time  |  avg time  |  max time  |%varavg| %total
---------------------------------------------------------------
Pair    | 1368       | 1369.6     | 1371.7     |   2.3 | 97.50
Neigh   | 1.3366     | 1.3612     | 1.3847     |   1.6 |  0.10
Comm    | 24.18      | 26.704     | 29.217     |  25.4 |  1.90
Output  | 0.00059317 | 0.0006349  | 0.00084954 |   0.0 |  0.00
Modify  | 2.2785     | 2.3665     | 2.6288     |   4.2 |  0.17
Other   |            | 4.634      |            |       |  0.33

Nlocal:            100 ave         103 max          97 min
Histogram: 1 4 0 7 0 14 11 0 2 1
Nghost:        785.725 ave         793 max         781 min
Histogram: 3 4 6 8 6 6 3 3 0 1
Neighs:        2729.88 ave        2810 max        2602 min
Histogram: 2 1 1 2 6 4 7 5 9 3
FullNghs:      5459.75 ave        5619 max        5278 min
Histogram: 1 2 3 4 6 8 9 3 2 2

Total # of neighbors = 218390
Ave neighs/atom = 54.5975
Neighbor list builds = 3178
Dangerous builds = 0
tabGAP coeff: type 1 is element Al
tabGAP read_file: reading potential file...
Reading tabgap potential file Al.tabgap with DATE: 2024-02-04
tabGAP read_file: e0 for element Al type 1 is -0.0481007
tabGAP read_file: expecting to read in 0 2b potentials and 1 3b potentials
tabGAP read_file: reading 3b potential 0: Al Al Al
tabGAP read_file: done
tabGAP coeff: done reading coefficients
Reading eam/fs potential file Al.eam.fs with DATE: 2024-02-04
[...]
WARNING: New thermo_style command, previous thermo_modify settings will be lost (src/output.cpp:912)
Neighbor list info ...
  update: every = 1 steps, delay = 0 steps, check = yes
  max neighbors/atom: 2000, page size: 100000
  master list distance cutoff = 6.2
  ghost atom cutoff = 6.2
  2 neighbor lists, perpetual/occasional/extra = 2 0 0
  (1) pair tabgap, perpetual
      attributes: full, newton on
      pair build: full/nsq
      stencil: none
      bin: none
  (2) pair eam/fs, perpetual, half/full from (1)
      attributes: half, newton on, cut 6.2
      pair build: halffull/newton/tri
      stencil: none
      bin: none
Setting up Verlet run ...
  Unit style    : metal
  Current step  : 0
  Time step     : 0.001
Per MPI rank memory allocation (min/avg/max) = 3.952 | 3.952 | 3.953 Mbytes
   Step          Temp          PotEng         Press         f_avp[1]       f_avp[2]       f_avp[3]       f_avp[4]       f_avp[5]       f_avp[6]   
         0   299.1603      -14787.88      -14375.297      0              0              0              0              0              0            
     40000   312.51424     -14792.542     -14720.559     -14935.763     -14244.656     -14325.343      7.5707826     -2609.9175      11.581005    
     80000   303.41685     -14795.357     -15006.926     -14960.517     -14304.938     -14357.305      2.3155183     -2596.1178     -6.2686402    
    120000   299.37463     -14788.503     -14379.259     -14914.686     -14267.136     -14338.115      4.6245161     -2588.5604      13.854716    
Loop time of 415.099 on 40 procs for 120000 steps with 4000 atoms

Performance: 24.977 ns/day, 0.961 hours/ns, 289.087 timesteps/s, 1.156 Matom-step/s
99.4% CPU use with 40 MPI tasks x 1 OpenMP threads

MPI task timing breakdown:
Section |  min time  |  avg time  |  max time  |%varavg| %total
---------------------------------------------------------------
Pair    | 404.18     | 404.66     | 405.24     |   1.3 | 97.48
Neigh   | 0.39757    | 0.40588    | 0.41506    |   1.1 |  0.10
Comm    | 7.249      | 7.9755     | 8.8335     |  14.1 |  1.92
Output  | 0.00016436 | 0.00021511 | 0.00029794 |   0.0 |  0.00
Modify  | 0.66882    | 0.69932    | 0.76713    |   2.7 |  0.17
Other   |            | 1.363      |            |       |  0.33

Nlocal:            100 ave         103 max          97 min
Histogram: 3 2 0 7 0 16 5 0 6 1
Nghost:        785.525 ave         791 max         779 min
Histogram: 2 2 1 6 7 5 6 3 4 4
Neighs:        2729.82 ave        2818 max        2639 min
Histogram: 2 5 2 3 6 8 6 2 3 3
FullNghs:      5459.65 ave        5637 max        5275 min
Histogram: 3 1 2 5 7 11 3 3 4 1

Total # of neighbors = 218386
Ave neighs/atom = 54.5965
Neighbor list builds = 967
Dangerous builds = 0
  using 1 OpenMP thread(s) per MPI task

The 'box' command has been removed and will be ignored

Reading restart file ...
  restart file = 22 Jul 2025, LAMMPS = 22 Jul 2025
  restoring atom style atomic from restart
  triclinic box = (-0.27279974 -0.2286871 -0.24006881) to (40.7728 40.728687 40.740069) with tilt (0 0 0)
  5 by 2 by 4 MPI processor grid
  pair style hybrid/overlay stores no restart info
  4000 atoms
  read_restart CPU = 0.005 seconds
tabGAP coeff: type 1 is element Al
tabGAP read_file: reading potential file...
Reading tabgap potential file Al.tabgap with DATE: 2024-02-04
tabGAP read_file: e0 for element Al type 1 is -0.0481007
tabGAP read_file: expecting to read in 0 2b potentials and 1 3b potentials
tabGAP read_file: reading 3b potential 0: Al Al Al
tabGAP read_file: done
tabGAP coeff: done reading coefficients
Reading eam/fs potential file Al.eam.fs with DATE: 2024-02-04
Changing box ...
  triclinic box = (-0.27279974 -0.2286871 -0.24006881) to (40.7728 40.728687 40.740069) with tilt (-0.40957374 0 0)
Neighbor list info ...
  update: every = 1 steps, delay = 0 steps, check = yes
  max neighbors/atom: 2000, page size: 100000
  master list distance cutoff = 6.2
  ghost atom cutoff = 6.2
  2 neighbor lists, perpetual/occasional/extra = 2 0 0
  (1) pair tabgap, perpetual
      attributes: full, newton on
      pair build: full/nsq
      stencil: none
      bin: none
  (2) pair eam/fs, perpetual, half/full from (1)
      attributes: half, newton on, cut 6.2
      pair build: halffull/newton/tri
      stencil: none
      bin: none
Setting up Verlet run ...
  Unit style    : metal
  Current step  : 0
  Time step     : 0.001
Per MPI rank memory allocation (min/avg/max) = 3.952 | 3.952 | 3.953 Mbytes
   Step          Temp          PotEng         Press         f_avp[1]       f_avp[2]       f_avp[3]       f_avp[4]       f_avp[5]       f_avp[6]   
         0   303.03556     -14790.689     -14551.138      0              0              0              0              0              0            
     40000   298.95216     -14787.423     -14307.823     -14921.586     -14123.168     -14419.836      2616.1149     -5.0967146     -5.8704892    
     80000   300.2963      -14788.437     -14388.552     -14945.469     -14151.697     -14489.102      2610.5489     -17.087442     -0.049191462  
    120000   292.05473     -14789.519     -14583.931     -14932.94      -14138.394     -14474.75       2618.1472     -0.33159136    -2.1363344    
    160000   304.92964     -14789.569     -14484.409     -14943.046     -14134.178     -14486.121      2602.8103     -5.5845158     -6.0566574    
    200000   302.79418     -14791.179     -14609.293     -14951.78      -14134.432     -14473.958      2613.993       5.1890119     -9.9482871    
    240000   296.74746     -14792.073     -14793.739     -14934.552     -14134.072     -14471.239      2596.6283     -23.124356      1.0354069    
    280000   301.1687      -14793.834     -14912.035     -14938.657     -14150.783     -14470.12       2613.0848     -9.9541521     -10.968598    
    320000   299.4914      -14789.903     -14555.085     -14901.775     -14119.256     -14447.031      2607.3681     -11.828108     -12.432829    
    360000   306.58677     -14790.584     -14552.059     -14954.61      -14160.688     -14485.665      2643.5165     -4.2456394      9.6783333    
    400000   296.03326     -14793.706     -14905.622     -14941.807     -14137.384     -14463.053      2614.983      -7.2741863     -15.838784    
Loop time of 1395.45 on 40 procs for 400000 steps with 4000 atoms

Performance: 24.766 ns/day, 0.969 hours/ns, 286.645 timesteps/s, 1.147 Matom-step/s
99.4% CPU use with 40 MPI tasks x 1 OpenMP threads

MPI task timing breakdown:
Section |  min time  |  avg time  |  max time  |%varavg| %total
---------------------------------------------------------------
Pair    | 1359       | 1360.3     | 1362.1     |   2.0 | 97.48
Neigh   | 1.3339     | 1.3557     | 1.3805     |   1.6 |  0.10
Comm    | 24.487     | 26.779     | 29.007     |  23.6 |  1.92
Output  | 0.00056711 | 0.0006228  | 0.00083209 |   0.0 |  0.00
Modify  | 2.2596     | 2.3604     | 2.6473     |   5.4 |  0.17
Other   |            | 4.641      |            |       |  0.33

Nlocal:            100 ave         102 max          98 min
Histogram: 1 0 13 0 0 14 0 9 0 3
Nghost:          786.1 ave         793 max         781 min
Histogram: 5 6 6 3 3 5 4 6 0 2
Neighs:        2727.38 ave        2823 max        2635 min
Histogram: 2 2 6 3 7 8 6 3 1 2
FullNghs:      5454.75 ave        5564 max        5356 min
Histogram: 2 6 5 3 10 2 1 4 4 3

Total # of neighbors = 218190
Ave neighs/atom = 54.5475
Neighbor list builds = 3189
Dangerous builds = 0
tabGAP coeff: type 1 is element Al
tabGAP read_file: reading potential file...
Reading tabgap potential file Al.tabgap with DATE: 2024-02-04
tabGAP read_file: e0 for element Al type 1 is -0.0481007
tabGAP read_file: expecting to read in 0 2b potentials and 1 3b potentials
tabGAP read_file: reading 3b potential 0: Al Al Al
tabGAP read_file: done
tabGAP coeff: done reading coefficients
Reading eam/fs potential file Al.eam.fs with DATE: 2024-02-04
WARNING: New thermo_style command, previous thermo_modify settings will be lost (src/output.cpp:912)
Neighbor list info ...
  update: every = 1 steps, delay = 0 steps, check = yes
  max neighbors/atom: 2000, page size: 100000
  master list distance cutoff = 6.2
  ghost atom cutoff = 6.2
  2 neighbor lists, perpetual/occasional/extra = 2 0 0
  (1) pair tabgap, perpetual
      attributes: full, newton on
      pair build: full/nsq
      stencil: none
      bin: none
  (2) pair eam/fs, perpetual, half/full from (1)
      attributes: half, newton on, cut 6.2
      pair build: halffull/newton/tri
      stencil: none
      bin: none
Setting up Verlet run ...
  Unit style    : metal
  Current step  : 0
  Time step     : 0.001
Per MPI rank memory allocation (min/avg/max) = 3.952 | 3.952 | 3.953 Mbytes
   Step          Temp          PotEng         Press         f_avp[1]       f_avp[2]       f_avp[3]       f_avp[4]       f_avp[5]       f_avp[6]   
         0   296.03326     -14793.706     -14905.622      0              0              0              0              0              0            
     40000   297.34944     -14789.649     -14514.097     -14951.508     -14116.459     -14454.439      2626.9929     -5.8598253      12.571102    
     80000   298.78555     -14786.698     -14199.413     -14937.856     -14173.108     -14482.818      2608.9213      1.7968282      0.1697149    
    120000   296.12208     -14789.683     -14566.256     -14929.749     -14141.713     -14469.994      2611.3151      0.2777879      3.4061188    
Loop time of 420.025 on 40 procs for 120000 steps with 4000 atoms

Performance: 24.684 ns/day, 0.972 hours/ns, 285.697 timesteps/s, 1.143 Matom-step/s
99.4% CPU use with 40 MPI tasks x 1 OpenMP threads

MPI task timing breakdown:
Section |  min time  |  avg time  |  max time  |%varavg| %total
---------------------------------------------------------------
Pair    | 408.87     | 409.39     | 409.96     |   1.3 | 97.47
Neigh   | 0.40299    | 0.40932    | 0.41605    |   0.9 |  0.10
Comm    | 7.3793     | 8.0932     | 8.8574     |  13.2 |  1.93
Output  | 0.00017216 | 0.00019257 | 0.00025915 |   0.0 |  0.00
Modify  | 0.68398    | 0.71499    | 0.79867    |   3.2 |  0.17
Other   |            | 1.412      |            |       |  0.34

Nlocal:            100 ave         102 max          98 min
Histogram: 1 0 10 0 0 20 0 6 0 3
Nghost:        785.125 ave         795 max         778 min
Histogram: 3 1 8 5 7 10 4 1 0 1
Neighs:         2728.8 ave        2796 max        2643 min
Histogram: 3 2 0 3 7 8 6 2 6 3
FullNghs:       5457.6 ave        5574 max        5340 min
Histogram: 1 0 8 3 9 9 2 4 1 3

Total # of neighbors = 218304
Ave neighs/atom = 54.576
Neighbor list builds = 958
Dangerous builds = 0
  using 1 OpenMP thread(s) per MPI task

The 'box' command has been removed and will be ignored

Reading restart file ...
  restart file = 22 Jul 2025, LAMMPS = 22 Jul 2025
  restoring atom style atomic from restart
  triclinic box = (-0.27279974 -0.2286871 -0.24006881) to (40.7728 40.728687 40.740069) with tilt (0 0 0)
  5 by 2 by 4 MPI processor grid
  pair style hybrid/overlay stores no restart info
  4000 atoms
  read_restart CPU = 0.007 seconds
tabGAP coeff: type 1 is element Al
tabGAP read_file: reading potential file...
Reading tabgap potential file Al.tabgap with DATE: 2024-02-04
tabGAP read_file: e0 for element Al type 1 is -0.0481007
tabGAP read_file: expecting to read in 0 2b potentials and 1 3b potentials
tabGAP read_file: reading 3b potential 0: Al Al Al
tabGAP read_file: done
tabGAP coeff: done reading coefficients
Reading eam/fs potential file Al.eam.fs with DATE: 2024-02-04
Changing box ...
  triclinic box = (-0.27279974 -0.2286871 -0.24006881) to (40.7728 40.728687 40.740069) with tilt (0.40957374 0 0)
Neighbor list info ...
  update: every = 1 steps, delay = 0 steps, check = yes
  max neighbors/atom: 2000, page size: 100000
  master list distance cutoff = 6.2
  ghost atom cutoff = 6.2
  2 neighbor lists, perpetual/occasional/extra = 2 0 0
  (1) pair tabgap, perpetual
      attributes: full, newton on
      pair build: full/nsq
      stencil: none
      bin: none
  (2) pair eam/fs, perpetual, half/full from (1)
      attributes: half, newton on, cut 6.2
      pair build: halffull/newton/tri
      stencil: none
      bin: none
Setting up Verlet run ...
  Unit style    : metal
  Current step  : 0
  Time step     : 0.001
Per MPI rank memory allocation (min/avg/max) = 3.952 | 3.952 | 3.953 Mbytes
   Step          Temp          PotEng         Press         f_avp[1]       f_avp[2]       f_avp[3]       f_avp[4]       f_avp[5]       f_avp[6]   
         0   303.03556     -14790.614     -14544.985      0              0              0              0              0              0            
     40000   297.65972     -14786.758     -14187.695     -14959.46      -14141.262     -14482.092     -2600.5808      18.744633     -13.482888    
     80000   299.66676     -14790.154     -14500.342     -14936.612     -14136.681     -14467.83      -2615.2145      10.744343     -3.1937598    
    120000   299.71226     -14791.42      -14689.312     -14952.771     -14140.562     -14487.593     -2635.7234      8.5996021     -6.2103593    
    160000   300.16792     -14787.532     -14272.965     -14946.096     -14140.419     -14479.725     -2610.4304     -17.758691     -6.3029556    
    200000   299.34021     -14789.472     -14568.186     -14946.883     -14127.154     -14451.819     -2605.3024      7.2754485     -7.7161259    
    240000   302.57948     -14791.321     -14667.539     -14975.937     -14138.517     -14482.66      -2613.2043      10.961488     -1.9369861    
    280000   296.89901     -14790.035     -14512.09      -14954.066     -14150.751     -14468.593     -2618.8749      12.14109       19.12107     
    320000   293.05207     -14790.801     -14667.368     -14929.533     -14141.476     -14452.106     -2614.2017     -6.4558541      17.765572    
    360000   299.25011     -14790.573     -14624.763     -14954.621     -14140.577     -14475.209     -2613.1625     -18.814613      15.094724    
    400000   299.36178     -14792.204     -14737.815     -14914.639     -14101.617     -14455.452     -2626.2115      4.0522273      12.328259    
Loop time of 1402.21 on 40 procs for 400000 steps with 4000 atoms

Performance: 24.647 ns/day, 0.974 hours/ns, 285.265 timesteps/s, 1.141 Matom-step/s
99.5% CPU use with 40 MPI tasks x 1 OpenMP threads

MPI task timing breakdown:
Section |  min time  |  avg time  |  max time  |%varavg| %total
---------------------------------------------------------------
Pair    | 1365.3     | 1366.9     | 1369       |   2.3 | 97.48
Neigh   | 1.3392     | 1.3669     | 1.393      |   1.9 |  0.10
Comm    | 24.38      | 26.883     | 29.454     |  25.3 |  1.92
Output  | 0.00057109 | 0.00062707 | 0.00084223 |   0.0 |  0.00
Modify  | 2.2686     | 2.3747     | 2.6925     |   5.8 |  0.17
Other   |            | 4.667      |            |       |  0.33

Nlocal:            100 ave         103 max          98 min
Histogram: 5 0 7 0 13 0 14 0 0 1
Nghost:        785.875 ave         791 max         780 min
Histogram: 1 3 3 6 6 6 4 3 4 4
Neighs:        2729.72 ave        2815 max        2623 min
Histogram: 3 0 1 3 11 6 3 7 4 2
FullNghs:      5459.45 ave        5607 max        5330 min
Histogram: 3 3 4 4 8 4 9 3 1 1

Total # of neighbors = 218378
Ave neighs/atom = 54.5945
Neighbor list builds = 3202
Dangerous builds = 0
tabGAP coeff: type 1 is element Al
tabGAP read_file: reading potential file...
Reading tabgap potential file Al.tabgap with DATE: 2024-02-04
tabGAP read_file: e0 for element Al type 1 is -0.0481007
tabGAP read_file: expecting to read in 0 2b potentials and 1 3b potentials
tabGAP read_file: reading 3b potential 0: Al Al Al
tabGAP read_file: done
tabGAP coeff: done reading coefficients
Reading eam/fs potential file Al.eam.fs with DATE: 2024-02-04
WARNING: New thermo_style command, previous thermo_modify settings will be lost (src/output.cpp:912)
Neighbor list info ...
  update: every = 1 steps, delay = 0 steps, check = yes
  max neighbors/atom: 2000, page size: 100000
  master list distance cutoff = 6.2
  ghost atom cutoff = 6.2
  2 neighbor lists, perpetual/occasional/extra = 2 0 0
  (1) pair tabgap, perpetual
      attributes: full, newton on
      pair build: full/nsq
      stencil: none
      bin: none
  (2) pair eam/fs, perpetual, half/full from (1)
      attributes: half, newton on, cut 6.2
      pair build: halffull/newton/tri
      stencil: none
      bin: none
Setting up Verlet run ...
  Unit style    : metal
  Current step  : 0
  Time step     : 0.001
Per MPI rank memory allocation (min/avg/max) = 3.952 | 3.952 | 3.953 Mbytes
   Step          Temp          PotEng         Press         f_avp[1]       f_avp[2]       f_avp[3]       f_avp[4]       f_avp[5]       f_avp[6]   
         0   299.36178     -14792.204     -14737.815      0              0              0              0              0              0            
     40000   302.92269     -14789.63      -14451.369     -14926.692     -14162.814     -14474.099     -2612.955      -18.542491      5.1902579    
     80000   297.8207      -14789.97      -14597.195     -14947.451     -14127.365     -14467.918     -2608.838      -19.233785      1.613658     
    120000   302.07389     -14788.057     -14373.971     -14962.156     -14144.536     -14462.224     -2599.8651      1.9765707      7.4821775    
Loop time of 419.488 on 40 procs for 120000 steps with 4000 atoms

Performance: 24.716 ns/day, 0.971 hours/ns, 286.063 timesteps/s, 1.144 Matom-step/s
99.4% CPU use with 40 MPI tasks x 1 OpenMP threads

MPI task timing breakdown:
Section |  min time  |  avg time  |  max time  |%varavg| %total
---------------------------------------------------------------
Pair    | 408.45     | 408.94     | 409.6      |   1.3 | 97.49
Neigh   | 0.39892    | 0.40431    | 0.41025    |   0.7 |  0.10
Comm    | 7.2443     | 8.0382     | 8.7997     |  14.3 |  1.92
Output  | 0.00017155 | 0.00018301 | 0.00024325 |   0.0 |  0.00
Modify  | 0.68167    | 0.71159    | 0.79917    |   3.0 |  0.17
Other   |            | 1.392      |            |       |  0.33

Nlocal:            100 ave         104 max          96 min
Histogram: 1 0 6 5 0 14 9 4 0 1
Nghost:        783.325 ave         790 max         774 min
Histogram: 1 0 1 1 3 18 8 4 2 2
Neighs:         2729.8 ave        2813 max        2600 min
Histogram: 1 1 2 2 2 13 5 6 4 4
FullNghs:       5459.6 ave        5684 max        5233 min
Histogram: 1 1 5 4 7 9 8 4 0 1

Total # of neighbors = 218384
Ave neighs/atom = 54.596
Neighbor list builds = 949
Dangerous builds = 0
=========================================
Components of the Elastic Constant Tensor
=========================================
Elastic Constant C11all = 83.9439527750297 GPa
Elastic Constant C22all = 85.0803869639537 GPa
Elastic Constant C33all = 84.7350123254876 GPa
Elastic Constant C12all = 48.7194661139504 GPa
Elastic Constant C13all = 48.3832432037578 GPa
Elastic Constant C23all = 49.0909841368667 GPa
Elastic Constant C44all = 26.7121062017642 GPa
Elastic Constant C55all = 25.9617900629135 GPa
Elastic Constant C66all = 26.0559010188814 GPa
Elastic Constant C14all = 0.086202800140675 GPa
Elastic Constant C15all = 0.021863665532136 GPa
Elastic Constant C16all = 0.063209834797935 GPa
Elastic Constant C24all = 0.00817185973185275 GPa
Elastic Constant C25all = -0.017234480370119 GPa
Elastic Constant C26all = 0.0260852360668785 GPa
Elastic Constant C34all = -0.0916725107901313 GPa
Elastic Constant C35all = 0.0923516425263413 GPa
Elastic Constant C36all = -0.0194975964183158 GPa
Elastic Constant C45all = -0.00872204304427225 GPa
Elastic Constant C46all = 0.0046600746685824 GPa
Elastic Constant C56all = -0.0343172897648379 GPa
=========================================
Average properties for a cubic crystal
=========================================
Bulk Modulus = 60.682970997069 GPa
Shear Modulus 1 = 26.2432657611864 GPa
Shear Modulus 2 = 17.927609768316 GPa
Poisson Ratio = 0.365527141479444
Total wall time: 7:02:39
