LAMMPS data file via write_data, version 22 Jul 2025, timestep = 20003, units = metal

1000 atoms
1 atom types

-4.4792658071915845 44.97925761671847 xlo xhi
-0.13815897428583135 20.388154879048667 ylo yhi
-0.13328244139574075 20.38327834615884 zlo zhi

Masses

1 26.9815

Atoms # atomic

935 1 -3.6937351899927835 3.815551192297631 3.875564531661861 1 0 1
41 1 -3.087119996971736 2.0575465020410513 0.1828047133558124 0 0 0
2 1 -2.3503406535219393 0.9548053905369291 4.3545894519389305 0 0 0
549 1 -1.0444033631519294 0.4421450185465887 0.7780106741638598 1 0 0
649 1 -4.253474056924485 1.0735494480754884 2.4205895514549427 1 1 0
102 1 -0.7790263288059291 3.0064498492993286 3.8795601617836732 0 0 0
8 1 1.1600021738967934 2.3107309267312477 1.260435530837052 0 0 0
105 1 1.5080874583723842 0.5815548020728947 3.3602523614292172 0 0 0
106 1 3.728785710680876 2.4360010936747614 3.7421433965310285 0 0 0
12 1 5.679840310458772 2.290061036958554 1.586686568694413 0 0 0
109 1 5.672510136536621 0.3246096533984745 3.567136944022352 0 0 0
7 1 3.602328717071872 0.4525575525185137 1.6701323740073148 0 0 0
110 1 7.654877183274474 2.331741893881174 3.4949312034598954 0 0 0
11 1 7.762982867541107 0.1817304576153363 1.4444935151034684 0 0 0
16 1 9.787129515260261 2.409666125768928 1.7146045354944939 0 0 0
114 1 11.979339205567598 2.1948542003169917 3.732450724058354 0 0 0
15 1 11.866291279365292 0.41507333757755005 1.551522593005201 0 0 0
113 1 9.719130894022374 0.2980526862245 3.628238795803871 0 0 0
20 1 13.569751310377423 2.3493605787151552 1.5479060481974043 0 0 0
117 1 14.160478473664103 0.29536257856076475 3.4708065186966786 0 0 0
501 1 16.06940180704066 2.0426653433348716 3.4678401631548104 0 0 0
524 1 15.899416311114475 2.4058675667476392 0.010629038307048894 0 0 0
942 1 18.375058101162196 2.6835863715214265 2.0577284911101676 0 0 1
124 1 -2.8103954126569963 5.999857954085466 1.6606896750736457 0 0 0
123 1 -1.2465484880745472 5.670095546838789 4.198722567921241 0 0 0
122 1 -0.5471388651052194 4.370239903232677 1.4672792747803092 0 0 0
125 1 1.6205141217974992 4.294726706179703 3.4664900674065904 0 0 0
28 1 1.585498178584528 6.2684163359329 1.4288054288420393 0 0 0
145 1 0.8912922604464617 8.014085810167316 3.276696715955805 0 0 0
27 1 3.61603453715383 4.148657210038769 1.6194351993274139 0 0 0
126 1 3.4446191796272236 6.430047563564394 3.710494556879897 0 0 0
129 1 5.5868092959977425 4.326018451301424 3.66478554858051 0 0 0
32 1 5.576103280970981 6.169345960678599 1.7299056405728177 0 0 0
31 1 7.5479933835903275 4.420335976926659 1.6824555285550225 0 0 0
130 1 7.746538742209639 6.4826520715267995 3.7439216717865698 0 0 0
133 1 9.632572454257684 4.216956527586385 3.663577031274433 0 0 0
36 1 9.886800851667635 6.344296308224189 1.8501766495056862 0 0 0
35 1 11.770605470103042 4.50300171710945 1.8677101472432276 0 0 0
134 1 12.078902448014382 6.560998336046645 3.7719931114137366 0 0 0
34 1 11.584943970730063 6.625884524329253 -0.11153102810974888 0 0 0
137 1 13.958729837338417 4.1326343341516285 3.6731939725163705 0 0 0
40 1 14.244365156605017 6.431487162848024 1.5530322186589898 0 0 0
601 1 15.77701217726382 5.969721265931043 3.999670629640187 0 0 0
37 1 13.632657045721913 4.401463782607173 0.06899157704413028 0 0 0
139 1 16.76571375914413 4.613042692397173 1.5430939893462325 0 0 0
712 1 18.800805909137452 4.888952167139095 4.371609245259954 0 0 0
603 1 18.803434653837577 6.44105851644201 2.276045034728253 0 0 0
982 1 17.70892837436125 7.772571934575442 4.604270290493625 0 1 1
658 1 -2.4199580739877904 8.257569662462426 3.367694764018661 1 0 0
4 1 -2.7828159998418314 10.732495814897574 1.3712962845494356 0 0 0
22 1 -2.567897255779795 8.315611453998148 0.16918408740778118 0 0 0
48 1 1.3902848312970422 10.424555927658844 1.532579977891481 0 0 0
143 1 -0.8556048285437181 10.441859063680154 3.2764026986443664 0 0 0
47 1 3.509221722148114 8.416142607981547 1.6488749713997428 0 0 0
146 1 3.421775760341843 10.692221878409361 3.5772385440053402 0 0 0
149 1 5.565737235151234 8.489282104861047 3.5400035326080914 0 0 0
52 1 5.4934329408858495 10.542553834791116 1.3424705326975224 0 0 0
51 1 7.608429035953991 8.390690887160924 1.7246170029550985 0 0 0
150 1 7.833446609663898 10.69113362250459 3.4930042699665016 0 0 0
56 1 9.743041845644365 10.785329762629221 1.6065065961640874 0 0 0
153 1 9.796600505209785 8.497170291928983 3.677351195065938 0 0 0
55 1 11.866365217009648 8.534649045879434 1.770482393024917 0 0 0
154 1 11.886181757303426 10.510559387279432 3.873065806056439 0 0 0
54 1 11.734566906224682 10.74962991560083 0.029632705489021305 0 0 0
157 1 14.158845162611673 8.453466363552126 3.930891850195275 0 0 0
60 1 13.83087227233026 10.684586474396868 1.6877167889025029 0 0 0
663 1 16.498048288198525 8.282352257232938 2.151496214247349 0 0 0
702 1 16.02005642274666 10.754047095935329 3.5228934134032635 0 0 0
544 1 16.51061253820003 10.842700117460877 0.03748314087270188 0 0 0
664 1 18.677619007215803 10.142595329608877 2.554691145865023 0 0 0
648 1 20.018950148712005 8.36843671473496 3.722846894929725 0 0 0
522 1 19.0215205119805 8.170502891280313 0.12964201908599904 0 0 0
973 1 -4.405350432019702 14.622886137284624 4.153512797737061 1 0 1
42 1 -2.684134013719257 12.672832287783521 3.582099296879805 0 0 0
162 1 -2.8121208985993436 14.704162928228138 1.7452989097474394 0 0 0
142 1 -0.6404312070252787 14.973592260608301 3.6617040211783203 0 0 0
165 1 1.3698410294831387 12.791937153810338 3.5480217776420284 0 0 0
63 1 -0.6387518602525617 12.522018075094014 1.463067938452239 0 0 0
68 1 1.3244184271299257 14.920708166257318 1.4072044219720596 0 0 0
67 1 3.3288841079142895 12.5713489313686 1.4747896886339362 0 0 0
169 1 5.4599688603584795 12.670539654484417 3.4557677630290544 0 0 0
166 1 3.2922456291908597 14.583165845392184 3.3570004409171172 0 0 0
72 1 5.522709381929587 14.803399741178621 1.4397967414090815 0 0 0
71 1 7.824032151935311 12.96283719747535 1.2324545418815958 0 0 0
170 1 7.85688729679098 14.70702372228631 3.4096104972414114 0 0 0
173 1 9.94983451618288 12.662581053349136 3.341665520573026 0 0 0
76 1 9.885024118057459 15.064815333511701 1.4448560914806106 0 0 0
75 1 12.127312102126929 13.209257009083663 1.564340191365237 0 0 0
174 1 11.733010010024767 14.7422207871524 3.710111199535022 0 0 0
59 1 16.228078607586077 13.036356327541142 1.6119098589717684 0 0 0
177 1 13.832591225898803 12.877203076174075 3.593152176192939 0 0 0
80 1 14.23050434246571 15.255918256213599 1.057189600362208 0 0 0
581 1 16.15181974865134 15.12466004318516 3.2903559300255227 0 0 0
731 1 18.43339897308369 15.138734038086149 4.841357034960543 0 0 0
793 1 18.156513449741006 13.240483333436433 3.260301052396799 0 0 1
158 1 19.59245157230589 12.408216937175162 1.3116734873815152 0 0 0
811 1 17.20358506446193 15.087167458166686 0.062437371983008916 0 -1 1
84 1 -3.3879549885926545 18.700458783659904 3.452927255378035 0 0 0
516 1 -3.5786452000804827 18.76723025476977 0.2692905182932002 1 -1 0
83 1 -1.1335388219136395 16.954694807543184 1.8117714489216077 0 0 0
3 1 -0.9921091749821227 19.570424661983402 2.969209161644011 0 -1 0
185 1 1.3938379052033856 17.094514049027687 3.5094800643395407 0 0 0
88 1 1.1747726088134156 18.945933698026465 1.0632904008769009 0 0 0
189 1 5.707172748957722 16.825724823540035 3.447210062844608 0 0 0
87 1 3.5872906605529824 16.786925021402233 1.5151069089660674 0 0 0
186 1 3.433567173147039 18.979621053405054 3.5683931028365943 0 0 0
92 1 5.383865421218715 18.832600573244854 1.4573211029822641 0 0 0
91 1 7.60133539066166 16.891914640332928 1.5306560002420977 0 0 0
190 1 7.540383958780859 18.977304839969896 3.3286032710932276 0 0 0
95 1 12.135424800468947 16.980089732756 1.6510625114388624 0 0 0
193 1 9.92364960608852 16.818816382785727 3.5639484913275137 0 0 0
96 1 9.833766583794171 18.952893570766634 1.518782650086122 0 0 0
194 1 11.99006578002708 18.875583947110556 3.374033109752194 0 0 0
661 1 16.24775296599125 17.00578375767754 1.4760047774703113 0 0 0
100 1 14.348586322798493 18.627743401916817 1.1045139872834417 0 0 0
197 1 14.129604915616152 16.71042489236268 3.6577525648600724 0 0 0
98 1 16.118480062287684 18.53202340396065 3.6582792180545027 0 0 0
561 1 16.84955469862319 20.09387873023867 1.5173539619327638 0 0 0
616 1 18.539494590962356 19.02541417864053 3.293616753519546 0 -1 1
562 1 18.975601639447603 16.70395389547543 1.8295192927818469 0 0 0
617 1 -2.26206535882619 0.7303650906873548 7.713080612414672 1 0 0
518 1 -2.9937096161215138 3.1185291999401334 6.504352601845689 1 0 0
464 1 -4.208981006118077 3.777423631106539 8.773666767728779 0 1 0
261 1 -2.5372048065373285 2.155971609282896 10.09454266720303 0 0 0
254 1 1.697511755849999 2.2574226341486123 9.792901624788517 0 0 0
103 1 -0.2377287937258119 0.610193565838148 5.841650704472493 0 0 0
202 1 -0.4913790824768749 2.7106808999844514 8.201549446013207 0 0 0
108 1 1.528512658051575 2.708445502575361 5.662210007212205 0 0 0
203 1 1.6117997643715354 0.28910066718441596 8.009151465972096 0 0 0
242 1 -0.4993016008333089 0.5365084310279868 9.775503903321233 0 1 0
204 1 3.5722567652676815 2.1404559186939824 7.593692308321002 0 0 0
112 1 5.903462122980747 2.281464589539968 5.641792348764872 0 0 0
107 1 3.8727952309084888 0.3221657800915136 5.656880127285857 0 0 0
256 1 5.88044765858022 2.4082643272429816 9.69718820101089 0 0 0
205 1 5.857446708475534 0.16566260102725366 7.596989154775572 0 0 0
253 1 3.7660855781125733 0.20703955317771783 9.734319983203395 0 0 0
206 1 7.809344004792093 2.240121211085232 7.672908351046839 0 0 0
111 1 7.7170752804174185 0.2497566125388032 5.5110685948466145 0 0 0
255 1 8.090824375219336 0.27951701529644324 9.756767762638415 0 0 0
257 1 12.069815522461028 0.002360220236265892 9.900426004918387 0 0 0
258 1 10.12084753121634 2.19346956990455 9.775744917584008 0 0 0
116 1 9.922766709766936 2.311767241738534 5.611786984385231 0 0 0
115 1 11.954505598196029 0.205836326310533 5.4782837518752725 0 0 0
207 1 9.907072998771078 0.3318440436820871 7.533212108042899 0 0 0
208 1 12.08654128749485 2.206075550158682 7.823469879208197 0 0 0
260 1 13.982516700649832 1.9892093808334512 9.958247263553982 0 0 0
120 1 14.19375205603983 2.088496134453677 5.906418219303055 0 0 0
138 1 16.642369705447024 2.227322754289827 7.035935741021614 0 0 0
209 1 14.300085355319986 0.004335157890936969 7.7369433977281465 0 0 0
118 1 17.188224780327 -0.12318102724464416 5.41389604364445 0 0 0
824 1 19.003127167568742 2.209292010857188 5.556195611417861 0 0 0
905 1 19.23653427149693 0.044676746127218975 6.91197966500158 0 0 0
586 1 17.834307228005464 1.5214023731379507 9.235696645212657 0 0 0
853 1 -3.670694781384886 6.804863700123407 6.197277300859494 1 0 0
757 1 -1.1809522729217732 4.789609256339414 6.806853237146626 1 0 0
212 1 -4.364704045364886 7.217416867799283 8.719986460746883 0 0 0
769 1 -0.9757345569479714 7.7778501593647436 5.967517254747132 1 0 0
639 1 -1.41123669326134 7.591313480196669 8.663048237416056 1 0 0
709 1 -1.937885395557426 4.8980190225895655 9.630955475908474 1 0 0
213 1 1.4947592899566118 4.288266972885319 7.857029007310602 0 0 0
128 1 1.2869715461703333 6.077020837601463 5.932689588409676 0 0 0
264 1 0.9767112085991814 6.363784364955848 9.612850455130454 0 0 0
263 1 3.75433028479474 4.332135876232262 9.521405454037946 0 0 0
215 1 5.693726877609427 4.388311948210641 7.544275163146679 0 0 0
127 1 3.6444897037890716 4.509426865107333 5.8132356501739615 0 0 0
214 1 3.586764199531183 6.571936806460903 7.780005123028984 0 0 0
132 1 5.737083400117019 6.595895324148749 5.649173970448914 0 0 0
266 1 5.60782098106368 6.38017166573927 9.875198449764147 0 0 0
131 1 7.748958097840935 4.206736384830438 5.670733637079185 0 0 0
216 1 7.757228449144993 6.457908269918211 7.793893043909745 0 0 0
265 1 7.7767854985827505 4.490051775140376 9.617346232553015 0 0 0
217 1 9.683769818514277 4.220532526759284 7.667973426379871 0 0 0
135 1 11.839841541271547 4.26512231633293 5.641535066752087 0 0 0
268 1 9.902076179415673 6.3951451315858145 9.845364366685098 0 0 0
136 1 9.728136242487311 6.286525581699523 5.626676064441175 0 0 0
218 1 11.783150713947503 6.708117656451969 7.887999387971652 0 0 0
267 1 12.025149243119106 4.320132074976417 9.74771448616967 0 0 0
279 1 16.50149129255467 4.016602928999759 5.3251729270862285 0 0 0
219 1 14.301815411370981 4.112020605083533 8.136456728508863 0 0 0
140 1 13.691198827055036 6.08887656988293 6.0150253440611 0 0 0
943 1 16.148638073088726 6.076548615526397 7.720744059588573 0 0 1
764 1 18.740399398844282 4.644695283231312 10.099460749527038 0 0 0
259 1 17.909353218207208 8.057128369700777 7.928431151699046 0 0 0
996 1 18.868219353028238 5.042346018954304 7.368370117069785 0 0 1
729 1 -3.273865860831017 9.911470838725027 8.842119597190495 1 0 0
620 1 -4.203361762823863 12.022113763751879 5.710060228076305 1 -1 0
222 1 -2.632819152756798 10.052473881729505 5.797549556054318 0 0 0
262 1 -0.5706051689733229 10.93337224040409 7.440944503087336 0 0 0
223 1 1.4171072087081376 8.294828207532872 7.541111830744315 0 0 0
148 1 1.0950558208616608 10.379025146032303 5.393269161266395 0 0 0
274 1 1.4720003219408397 10.630193452194616 9.371789952777043 0 0 0
147 1 3.4943325098896576 8.548296290707011 5.700411004261814 0 0 0
224 1 3.70234584681649 10.620333453974277 7.49442009365689 0 0 0
225 1 5.7201530208661495 8.48697051829687 7.649458422843316 0 0 0
152 1 5.657212668233493 10.394043879796914 5.38931892554742 0 0 0
276 1 5.82359689487458 10.44735870037097 9.660676108573368 0 0 0
273 1 3.633473009921863 8.826337281095459 9.85613924328064 0 0 0
275 1 7.74020170174604 8.270835511744494 9.980201570941256 0 0 0
151 1 7.8895792315990985 8.743195513005244 5.663073832020879 0 0 0
226 1 7.823680971859245 10.622705792266478 7.633129334337793 0 0 0
278 1 9.950418319145298 10.34205392414277 9.733980854132053 0 0 0
227 1 9.74905637208777 8.403131340644107 7.79559043780141 0 0 0
156 1 9.812219601060223 10.604871603445591 5.696886054006822 0 0 0
155 1 11.75966023848314 8.308482030240793 5.761362530404005 0 0 0
228 1 11.946689292308655 10.639827041084956 7.7249885014137005 0 0 0
277 1 12.05199252419915 8.529261625581452 10.016897692145335 0 0 0
339 1 15.620726394695613 8.501343552404126 6.01913959443346 0 0 0
280 1 14.064390443684783 10.689741501410618 9.759058808427481 0 0 0
229 1 14.01768175818476 8.352457216211906 8.095973450955531 0 0 0
160 1 13.86387498745151 10.691878125060532 5.9829103925983 0 0 0
564 1 16.140952722916087 10.23666792949736 8.271898787509732 0 0 0
159 1 18.072019885419564 10.849515802640605 5.8321793066794925 0 0 0
624 1 20.006618510827437 9.79173835648558 7.493906528487046 0 0 0
541 1 18.13966607305643 10.263823213708577 10.112068355198895 0 0 -1
281 1 -2.703287162255963 12.382833887476457 8.335470040272641 0 0 0
759 1 -2.9383442753953113 14.28624453771499 6.5712028766281545 1 -1 0
362 1 -0.543063527967119 13.008782018427107 9.880749450922961 0 0 0
284 1 1.6907322591104483 14.917631692404049 9.792477795734118 0 0 0
163 1 -0.506545344081843 12.661472212973887 5.419583233874999 0 0 0
232 1 -0.5895274861280222 14.749716364755834 7.734408743111135 0 0 0
233 1 1.443859896862401 12.87380712853782 7.615664382357873 0 0 0
168 1 1.7950021581193596 14.796567696313456 5.682964617766494 0 0 0
283 1 3.725503759634689 12.732185399612789 9.290653174277223 0 0 0
235 1 5.74998820224593 12.522920732795825 7.499731837690974 0 0 0
167 1 3.514174878606366 12.54530898743468 5.615400861879095 0 0 0
234 1 3.965387163611277 14.8325482587923 7.395008636325453 0 0 0
172 1 5.98516997404103 14.75325476324527 5.454001787792495 0 0 0
286 1 6.12371761083865 14.429581454901244 9.628952396808195 0 0 0
171 1 7.7397959567986785 12.689186166656029 5.523034265507163 0 0 0
236 1 8.076934597964545 14.649375005417923 7.649113616538533 0 0 0
285 1 8.06677751505397 12.44811944185777 9.627805193648323 0 0 0
287 1 11.789043786881226 12.613929954245982 9.729303408849626 0 0 0
237 1 10.016011293383029 12.569250664163562 7.670853452902646 0 0 0
176 1 9.909447182034572 14.884176080226785 5.708699774763376 0 0 0
175 1 11.799973600426913 12.696115215993235 5.694193096661359 0 0 0
238 1 11.95738005975868 14.871901832497176 7.576362028016691 0 0 0
288 1 9.929310109012576 14.621374264851696 9.720650142394748 0 0 0
290 1 14.464679917267635 15.276038407789953 9.6195339703532 0 0 0
239 1 13.917150441169404 12.956081064313917 7.895223756545775 0 0 0
884 1 15.838133521384027 12.634364524583688 5.98115967844099 0 0 0
180 1 14.005483175749838 14.77236591887903 5.745525685596269 0 0 0
721 1 15.944399125250492 12.794767685597266 9.759675009624303 0 0 0
178 1 17.23399752943914 14.646961514569991 7.548409311029624 0 0 0
822 1 18.468399165571682 12.5157075764083 8.377585868714645 0 0 0
782 1 20.17541488898322 15.563508971716947 7.026333562264339 0 0 0
540 1 -3.112762496061892 19.1829416548385 9.700115169559988 1 0 0
556 1 -4.472088282483452 16.74487288720553 5.295287411765896 1 0 0
979 1 -2.7264127769916007 19.21264157924201 6.034882207128385 1 -1 1
730 1 -2.405002825471543 16.624105538034932 7.6927094047807065 1 0 0
294 1 1.5555638017847029 18.78488333766922 9.728518411948174 0 0 0
291 1 -0.7288807122119594 16.734686972402358 9.86214131019845 0 0 0
519 1 -0.09580771419252887 18.863946450564022 7.615036186701571 1 -1 0
183 1 -0.6487383739816526 17.018669160147354 5.386657739861768 0 0 0
243 1 1.9542098299097006 16.776442478325023 7.469436089775305 0 0 0
188 1 1.3919092154437713 19.17141550371408 5.46826046766493 0 0 0
296 1 5.834199931949936 18.630592840163125 9.852653304643713 0 0 0
245 1 6.09900290602573 16.781260628312552 7.592153734264324 0 0 0
187 1 3.5602344577391474 16.713831885906608 5.2610154445471595 0 0 0
244 1 3.795792829070427 18.72483493022945 7.701806703085507 0 0 0
192 1 5.464175965391014 18.635012459987472 5.570217467098675 0 0 0
293 1 4.000950940855626 16.541656198595504 9.490894758066135 0 0 0
295 1 8.070208926231045 16.702545235457393 9.834327680257616 0 0 0
191 1 7.879929037563867 16.79244336321279 5.465714990682721 0 0 0
246 1 7.947284475395568 18.776049214040583 7.7086658161221004 0 0 0
247 1 9.975706099049917 16.81831916181107 7.57248202594856 0 0 0
195 1 11.92273732997862 16.95587704418631 5.516206504454542 0 0 0
297 1 11.735964747943648 16.76088786532293 9.8143023972258 0 0 0
248 1 11.80725147681293 18.811065855335045 7.524122847383834 0 0 0
298 1 10.020333868016175 18.83496707285896 9.76264043525399 0 0 0
196 1 9.662962871814868 18.8183798568394 5.367586303221899 0 0 0
198 1 15.992048204551999 16.863688318452134 5.859928303725211 0 0 0
210 1 14.115660474595902 18.859556886545825 5.689051559765127 0 -1 0
200 1 13.771958538970374 16.859695821030606 7.6588431504513155 0 0 0
398 1 16.556752877574247 18.498205059340627 7.934111917992219 0 0 0
249 1 14.17869078928505 18.427262555712254 9.928408064682674 0 0 0
641 1 18.904289897091427 19.377932239314205 9.125228289942031 0 -1 0
19 1 18.673009780857015 17.86900253305476 6.043052640296319 0 -1 0
904 1 18.806322410400192 16.6100660243471 9.16984631535045 0 -1 0
251 1 -2.9611838076387826 0.2719504943578688 11.971384582301628 0 0 0
324 1 -1.989182566372865 2.6021138560844372 13.607958217698243 0 0 0
817 1 -4.090373687831816 3.6510854417634575 11.908397509375535 1 0 0
302 1 -0.46149419576525297 2.736409624215536 11.553699476037847 0 0 0
308 1 1.4513790471070802 2.4535402486957363 13.656047795075432 0 0 0
305 1 1.806236022009375 0.14694569037977256 11.830031691272959 0 0 0
303 1 -0.6866900624664551 0.2212153623108729 13.672759307539733 0 0 0
306 1 3.686821378596063 2.194677887787131 11.718277220466907 0 0 0
312 1 5.885505404325814 2.1904458692981175 13.810195419256775 0 0 0
309 1 6.045755837533553 0.2271871814902282 11.741347575983337 0 0 0
307 1 3.82056382231759 0.08889356680550531 13.792990770827565 0 0 0
310 1 7.962256173602405 2.446114137835592 11.670358087296584 0 0 0
311 1 7.970499508879344 0.20269301853419147 13.635314544424874 0 0 0
316 1 9.895455352728682 2.5165235300295254 13.850379786342303 0 0 0
314 1 12.057667881322242 2.2700375047706136 11.903844115895085 0 0 0
313 1 10.054858228509993 0.45458557180596615 11.918130415178055 0 0 0
315 1 12.095525282426042 0.37502067688572405 14.077820294979936 0 0 0
320 1 13.840545313842796 2.4837171182326165 14.203477357244685 0 0 0
220 1 16.47026450951029 2.4278689811992855 11.35100112689613 0 0 0
317 1 14.005465321220491 0.031927315210317886 12.067019941317852 0 0 0
952 1 16.15402237690148 1.0804755928837018 14.094755026796076 0 0 0
947 1 18.422787521138005 0.7810743093540651 12.631165957636862 0 0 0
685 1 19.629479383637936 3.0289530829775684 11.668129383869397 0 1 0
888 1 18.491944841448543 2.8966122305186963 14.287886122096038 0 1 0
252 1 -2.7391539349898335 5.66030565320393 13.406879169843737 0 0 0
441 1 -2.5147908190533634 7.392576567350075 11.1943617157221 0 0 0
343 1 -0.2743896962998713 6.16635280334284 12.046269976339946 0 0 0
323 1 -0.27848315577090155 4.690828567520964 14.206094026497816 0 0 0
325 1 1.5942855105685627 4.332015535307819 11.517354201502231 0 0 0
328 1 1.7239075998440239 6.688930952184419 13.718067605998058 0 0 0
327 1 3.5708046648683034 4.458708470887175 13.617519653227184 0 0 0
326 1 3.43890365064913 6.496372105366523 11.536855367254573 0 0 0
329 1 5.69209780942308 4.139064660546775 11.67489310705075 0 0 0
332 1 5.648049174455782 6.171066637154378 13.567557895059123 0 0 0
331 1 7.749546899764452 4.1664859434233605 13.995130304958122 0 0 0
330 1 7.793650319387728 6.2825430525589 11.953762513641358 0 0 0
336 1 9.622585192869048 6.378597218598017 13.874373943667514 0 0 0
335 1 11.948260732468402 4.659238652815837 13.84884305191743 0 0 0
333 1 9.979497895492386 4.24138850883504 11.739247084238398 0 0 0
334 1 11.80209690675662 6.5268161020313835 12.15558980332985 0 0 0
337 1 14.374679757392204 4.126526598520092 11.977113557917736 0 0 0
340 1 14.139877821661127 6.407596010078353 13.961320307585178 0 0 0
861 1 16.079972861299005 4.422576552619488 14.568806790056236 0 0 0
270 1 13.712133435475824 6.317379302503367 10.30890266380841 0 0 0
801 1 16.373951050855105 5.014551498529582 10.345078913980949 0 0 0
357 1 16.31907005144074 7.736281973210112 10.700071918729538 0 0 0
903 1 19.070078508075227 7.147653123603024 10.878344400383313 0 -1 0
269 1 18.211897856464276 5.226891905094725 12.806353243785844 0 0 0
838 1 -2.9868300330498503 10.919857519695826 11.715699443369408 1 0 0
740 1 -3.7124551617510226 8.429037096314412 13.1650673742426 1 0 0
916 1 -3.770255930737548 11.098898638048288 13.949347060116803 1 -1 0
461 1 -1.1121132684741006 10.245757155633246 14.94629576895374 0 0 0
342 1 -0.4474383647179607 11.769439682863153 12.403747118277392 0 0 0
345 1 1.0730604961726682 8.76137744159053 11.566812794272332 0 0 0
348 1 1.4857838697561396 10.648515990101153 13.843850784112202 0 0 0
271 1 -0.8435836518162212 9.973736889514463 10.269969761442034 0 0 0
347 1 3.693003716672983 8.615165629406606 13.5591571518937 0 0 0
346 1 3.8058341497548582 10.757218875307704 11.902425824160735 0 0 0
349 1 5.7180854742412315 8.433770609814742 11.904847418815821 0 0 0
352 1 5.824264551326975 10.500136598172856 13.79228118676557 0 0 0
351 1 7.826405450884243 8.493636777763319 13.98933198720206 0 0 0
350 1 7.7768027589444895 10.445239513969085 11.80558513218222 0 0 0
353 1 10.075567718227914 8.385935080066078 11.815980133474543 0 0 0
355 1 11.63465058413379 8.603670888322576 14.184712357575847 0 0 0
356 1 9.804073106704697 10.614851383228169 14.063182370341936 0 0 0
354 1 12.036913451470639 10.62704736797731 11.877584080048177 0 0 0
941 1 14.08911633279908 8.612659761843192 12.394369295114872 0 0 0
360 1 14.074128796336328 10.706041571337947 14.37448160532252 0 0 0
359 1 16.327524666644887 10.42312319786213 12.243128962364274 0 0 0
179 1 16.028767657279783 8.525359416935808 14.998612579920882 0 0 0
774 1 18.544202556070314 12.040020627419668 12.350114059844415 0 0 0
881 1 18.487901511995403 10.679401511414882 14.813721711664153 0 0 0
358 1 18.507612632257775 8.277942538863087 13.400967730469468 0 0 0
537 1 -2.6246944087610995 14.080265390955347 10.917604757843272 1 0 0
363 1 -2.1451869464218793 13.076371030545731 14.046708736086634 0 0 0
679 1 -3.441978057299913 15.368275932750915 13.674925295377113 1 0 -1
301 1 -0.6902784064019718 15.093666171833203 12.070173610686728 0 -1 0
365 1 1.9698777683685593 12.643587921118058 11.287670662774133 0 0 0
368 1 1.9229438224828463 14.589957750749383 13.280818557766409 0 0 0
462 1 -0.1922687908329026 14.593492354040576 14.806907372567851 0 0 0
367 1 3.8993767078128307 12.878107471219836 13.991810772858884 0 0 0
366 1 4.0701199698793555 14.754246969478558 11.695361452215133 0 0 0
369 1 5.922745199992201 12.572027048244 11.691009627423142 0 0 0
372 1 5.827028447607798 14.5883109983188 13.96518558710556 0 0 0
371 1 7.6806157568907345 12.56782785111206 13.817161343841951 0 0 0
370 1 8.080234979230227 14.473635315867957 11.871449200280617 0 0 0
373 1 9.915684436429983 12.473277075023882 12.126464439519095 0 0 0
376 1 9.948638930077179 14.609077138063752 14.027269700514077 0 0 0
375 1 12.095707555918498 12.623561470153387 14.051651978090904 0 0 0
374 1 11.882906431248614 14.541962575548549 11.783321086970206 0 0 0
377 1 14.049485494425863 12.78207041473503 11.985799235227299 0 0 0
380 1 14.088498983581456 14.58911370759811 14.059452489657625 0 0 0
378 1 16.2205962227308 14.495223741706443 11.962764486635017 0 0 0
458 1 16.639344155706354 12.917796652578017 14.402296821404217 0 0 0
827 1 19.947120428630395 14.500101988374277 13.738180639712132 0 -1 0
864 1 17.094370787574608 16.112425573169723 14.025622410965063 0 0 0
772 1 18.775210809350092 14.385899328764179 10.628735123015266 0 0 0
231 1 -3.743358163754396 16.734083774876886 10.583771387380162 0 0 0
321 1 -3.2467568149718034 18.038787630705706 13.10771359454751 0 -1 0
482 1 -0.6766591459202149 17.172175554294434 13.777986782596706 0 0 0
382 1 -0.8024452208134232 19.056914263144307 11.303522018572624 0 0 0
385 1 1.7702756548353458 17.054465666784616 11.732262354202565 0 0 0
388 1 1.492492343308129 18.800812749972735 13.770918043558641 0 0 0
387 1 3.660521712904302 16.910638421939957 14.049824699343624 0 0 0
386 1 4.048630580009121 18.486391144491137 11.837965941819355 0 0 0
392 1 5.947823076230245 18.475227277774962 13.899029995689814 0 0 0
389 1 6.173517418329979 16.60397549247738 11.904116848476663 0 0 0
391 1 8.032402601093516 16.656426299259635 13.962054530780692 0 0 0
390 1 8.04971948293586 18.75480743886287 11.751551080920143 0 0 0
395 1 12.041767534716353 16.296729296337134 13.86382169659119 0 0 0
393 1 9.853669383635731 16.676161751220903 12.015263512061683 0 0 0
396 1 10.29687176401831 18.78537439366314 13.878659402614076 0 0 0
394 1 12.123328816427883 18.535196443863974 12.031124708078917 0 0 0
300 1 16.512625192568553 16.919745292237103 10.797273690010305 0 0 0
417 1 16.427618163663137 19.089978101923165 14.207763543689254 0 -1 0
397 1 14.254802276274024 16.82616353903289 12.297246068195058 0 0 0
400 1 13.993188867427602 18.344518319456256 14.54734148176555 0 0 0
318 1 16.260733679780607 20.026614862008017 10.236993179875176 0 -1 0
634 1 18.971078408296183 18.851256665143282 14.530423177051597 0 -1 0
775 1 18.468121002213984 18.594160073049387 11.801337554494838 0 0 0
579 1 -2.921604567465387 -0.011604048101821557 15.76920740323862 1 1 -1
403 1 -1.1642031341978472 0.8626855440059822 17.70849801571015 0 0 0
201 1 -3.399033490768085 3.7642734176227997 15.845092050206395 0 0 0
402 1 -0.27500142561697327 2.2967952095089563 15.620833693148999 0 0 0
408 1 1.4224118245866153 2.4156524871428986 17.93131094617489 0 0 0
405 1 1.664792770906752 0.4098344709423313 15.701828938619464 0 0 0
5 1 1.3861444004148975 0.34883526361988854 19.76935270714199 0 0 -1
514 1 -0.5005374206540347 2.7719519756197366 19.757618102975144 1 0 -1
406 1 3.774160524462687 2.3108850020677005 15.751377521697762 0 0 0
412 1 5.425477596878377 2.1571726836210487 18.03030979914343 0 0 0
407 1 3.3903881020806885 0.32150147015442765 18.03080848370137 0 0 0
9 1 5.507895257523698 0.17674352233346063 20.097129458090265 0 0 -1
409 1 5.7418179916614065 0.14591366373148373 15.751911962525691 0 0 0
6 1 3.3317858135430134 2.276265222213381 20.075802945763726 0 0 -1
13 1 9.56962357511306 0.22106921963158155 20.026435331885118 0 0 -1
410 1 7.814221403574134 2.2385327251707436 15.87558236000879 0 0 0
411 1 7.474041169317211 0.24449855283712058 17.959047112624248 0 0 0
10 1 7.437096566820701 2.114310400909644 20.005730673949117 0 0 -1
416 1 9.465815911346024 2.2214752372731335 18.03325121045387 0 0 0
414 1 11.753694478514916 2.394748805201532 16.180437214745595 0 0 0
415 1 11.528585458275767 0.3572531291027438 18.25587294675467 0 0 0
413 1 9.735198756876903 0.21981629914134665 16.016809826898182 0 0 0
14 1 11.5819864975239 2.451319239485218 20.103289365676467 0 0 -1
17 1 14.116162216567464 0.4376544541266163 20.071178559775973 0 0 -1
420 1 13.869164389022323 2.415273270242292 18.137992126399 0 0 0
500 1 14.011429836242815 0.36734109959950356 16.159640515755363 0 1 0
843 1 16.33460918340333 0.5569507637694097 17.949791284217703 0 0 0
650 1 17.947793595855593 0.8469200897972917 15.996365126173343 0 1 0
78 1 19.218380752690734 0.698492678928301 18.2925967121233 0 1 -1
623 1 18.506918520697344 2.7561008497936417 19.915635145359424 0 0 0
816 1 -2.5276168176205456 6.671867129604929 17.60863277656862 1 0 0
637 1 -2.3787148402301286 4.431603634087333 19.2838716519772 1 0 -1
580 1 -0.3187744535548189 6.929149740211254 15.710842195874065 1 0 -1
423 1 -0.43382227339939927 4.519871640312664 17.299079439986194 0 0 0
425 1 1.9931331510985837 4.471613500649466 15.892257792435045 0 0 0
428 1 2.0151941739221604 6.292218728598059 17.785365881377075 0 0 0
25 1 1.6396361987586312 4.476468015519009 19.859675724500107 0 0 -1
43 1 -0.48925754942847677 6.263067458933851 19.89856133100831 0 0 -1
29 1 5.6959650110390765 4.054762388119588 20.12979903560555 0 0 -1
427 1 3.806268544219792 4.326793794020923 17.954126612625252 0 0 0
429 1 5.7068987958502895 4.367031412389692 15.935747311565878 0 0 0