LAMMPS (22 Jul 2025)
OMP_NUM_THREADS environment is not set. Defaulting to 1 thread.
  using 1 OpenMP thread(s) per MPI task
# ==============================================================================
# LAMMPS Script: Two-Phase Coexistence Method for Aluminum Melting Point
# Methodology: Solid-Liquid interface stability at zero pressure
# =============================================================================

clear
OMP_NUM_THREADS environment is not set. Defaulting to 1 thread.
  using 1 OpenMP thread(s) per MPI task
echo none
Lattice spacing in x,y,z = 4.0499992 4.0499992 4.0499992
Created orthogonal box = (0 0 0) to (40.499992 20.249996 20.249996)
  2 by 1 by 2 MPI processor grid
Created 1000 atoms
  using lattice units in orthogonal box = (0 0 0) to (40.499992 20.249996 20.249996)
  create_atoms CPU = 0.096 seconds
550 atoms in group solid
500 atoms in group liquid
Neighbor list info ...
  update: every = 1 steps, delay = 0 steps, check = yes
  max neighbors/atom: 2000, page size: 100000
  master list distance cutoff = 7
  ghost atom cutoff = 7
  binsize = 3.5, bins = 12 6 6
  3 neighbor lists, perpetual/occasional/extra = 2 1 0
  (1) pair meam, perpetual
      attributes: full, newton on
      pair build: full/bin/atomonly
      stencil: full/bin/3d
      bin: standard
  (2) pair meam, perpetual, half/full from (1)
      attributes: half, newton on
      pair build: halffull/newton
      stencil: none
      bin: none
  (3) compute centro/atom, occasional, copy from (1)
      attributes: full, newton on
      pair build: copy
      stencil: none
      bin: none
Per MPI rank memory allocation (min/avg/max) = 10.42 | 10.42 | 10.42 Mbytes
   Step          Temp          Press          PotEng         KinEng         TotEng        CPULeft    
         0   0             -0.17180105    -3359.99        0             -3359.99        0            
         1   0             -0.17180105    -3359.99        0             -3359.99        24.338559    
Loop time of 0.0245791 on 4 procs for 1 steps with 1000 atoms

89.4% CPU use with 4 MPI tasks x 1 OpenMP threads

Minimization stats:
  Stopping criterion = force tolerance
  Energy initial, next-to-last, final = 
     -3359.98995738403  -3359.98995738403  -3359.98995738403
  Force two-norm initial, final = 8.0883584e-13 7.8720183e-13
  Force max component initial, final = 4.6915407e-14 4.6092752e-14
  Final line search alpha, max atom move = 1 4.6092752e-14
  Iterations, force evaluations = 1 2

MPI task timing breakdown:
Section |  min time  |  avg time  |  max time  |%varavg| %total
---------------------------------------------------------------
Pair    | 0.019238   | 0.019451   | 0.019625   |   0.1 | 79.14
Neigh   | 0          | 0          | 0          |   0.0 |  0.00
Comm    | 0.0003458  | 0.0026361  | 0.0048966  |   4.1 | 10.72
Output  | 0          | 0          | 0          |   0.0 |  0.00
Modify  | 0          | 0          | 0          |   0.0 |  0.00
Other   |            | 0.002492   |            |       | 10.14

Nlocal:            250 ave         250 max         250 min
Histogram: 4 0 0 0 0 0 0 0 0 0
Nghost:           1484 ave        1484 max        1484 min
Histogram: 4 0 0 0 0 0 0 0 0 0
Neighs:           9750 ave        9750 max        9750 min
Histogram: 4 0 0 0 0 0 0 0 0 0
FullNghs:        19500 ave       19500 max       19500 min
Histogram: 4 0 0 0 0 0 0 0 0 0

Total # of neighbors = 78000
Ave neighs/atom = 78
Neighbor list builds = 0
Dangerous builds = 0
WARNING: Energy due to 3 extra global DOFs will be included in minimizer energies
 (src/min.cpp:222)
Per MPI rank memory allocation (min/avg/max) = 10.42 | 10.42 | 10.42 Mbytes
   Step          Temp          Press          PotEng         KinEng         TotEng        CPULeft    
         1   0             -0.17180105    -3359.99        0             -3359.99        0            
         3   0             -8.9621916e-10 -3359.99        0             -3359.99        17.050213    
Loop time of 0.0344601 on 4 procs for 2 steps with 1000 atoms

90.5% CPU use with 4 MPI tasks x 1 OpenMP threads

Minimization stats:
  Stopping criterion = force tolerance
  Energy initial, next-to-last, final = 
     -3359.98995738403   -3359.9899573842  -3359.98995738437
  Force two-norm initial, final = 0.0030844725 1.6132624e-11
  Force max component initial, final = 0.001780821 9.3294166e-12
  Final line search alpha, max atom move = 1 9.3294166e-12
  Iterations, force evaluations = 2 4

MPI task timing breakdown:
Section |  min time  |  avg time  |  max time  |%varavg| %total
---------------------------------------------------------------
Pair    | 0.029012   | 0.029738   | 0.031561   |   0.6 | 86.30
Neigh   | 0          | 0          | 0          |   0.0 |  0.00
Comm    | 0.0016665  | 0.0035004  | 0.004232   |   1.8 | 10.16
Output  | 0          | 0          | 0          |   0.0 |  0.00
Modify  | 0          | 0          | 0          |   0.0 |  0.00
Other   |            | 0.001221   |            |       |  3.54

Nlocal:            250 ave         250 max         250 min
Histogram: 4 0 0 0 0 0 0 0 0 0
Nghost:           1484 ave        1484 max        1484 min
Histogram: 4 0 0 0 0 0 0 0 0 0
Neighs:           9750 ave        9750 max        9750 min
Histogram: 4 0 0 0 0 0 0 0 0 0
FullNghs:        19500 ave       19500 max       19500 min
Histogram: 4 0 0 0 0 0 0 0 0 0

Total # of neighbors = 78000
Ave neighs/atom = 78
Neighbor list builds = 0
Dangerous builds = 0
WARNING: The GJF formulation in fix langevin is deprecated and will be removed soon. 
Please use fix gjf instead: https://docs.lammps.org/fix_gjf.html (src/fix_langevin.cpp:174)
WARNING: The GJF formulation in fix langevin is deprecated and will be removed soon. 
Please use fix gjf instead: https://docs.lammps.org/fix_gjf.html (src/fix_langevin.cpp:174)
Per MPI rank memory allocation (min/avg/max) = 10.79 | 10.79 | 10.79 Mbytes
   Step          Temp          Press          PotEng         KinEng         TotEng        CPULeft    
         3   1397.681       11607.871     -3359.99        180.48379     -3179.5062      0            
       100   741.25234      19115.116     -3241.4349      95.71857      -3145.7163      125.444      
       200   827.2007      -3007.8685     -3220.7402      106.81716     -3113.9231      122.79551    
       300   879.69184     -2881.1694     -3198.3125      113.59539     -3084.7171      120.03669    
       400   963.77305      1257.3385     -3182.2337      124.45287     -3057.7808      120.1023     
       500   988.62448      3841.8604     -3160.6749      127.66195     -3033.013       120.41091    
       600   1001.66        1062.6075     -3145.8997      129.34524     -3016.5545      119.93594    
       700   1056.4715     -3033.193      -3136.8275      136.42309     -3000.4044      119.12906    
       800   1019.9961     -2356.8952     -3122.6018      131.713       -2990.8888      117.78534    
       900   1073.3881      1356.1181     -3115.7847      138.60756     -2977.1771      117.57759    
      1000   1192.6333      3960.6417     -3109.7336      154.00579     -2955.7278      117.04743    
      1100   1210.2259      97.045081     -3108.7088      156.27754     -2952.4313      116.79239    
      1200   1181.618      -1142.2424     -3095.645       152.58338     -2943.0617      116.01207    
      1300   1199.1517     -618.58327     -3087.0674      154.84752     -2932.2198      115.91832    
      1400   1202.6392     -402.91056     -3084.3708      155.29787     -2929.0729      116.53737    
      1500   1164.9882      1411.3398     -3074.9002      150.43596     -2924.4643      116.22691    
      1600   1232.04        490.59673     -3074.1987      159.09442     -2915.1042      116.00691    
      1700   1219.9968     -41.715206     -3065.6559      157.53926     -2908.1166      116.47016    
      1800   1214.17       -186.06771     -3067.7579      156.78684     -2910.9711      116.73027    
      1900   1287.5283      215.90225     -3063.2449      166.25967     -2896.9853      115.88146    
      2000   1297.97       -1446.9461     -3061.6909      167.60801     -2894.0829      115.18486    
      2100   1261.0612     -875.03077     -3058.3329      162.84195     -2895.4909      114.37598    
      2200   1235.0244     -426.12375     -3056.4366      159.47979     -2896.9568      114.20539    
      2300   1279.7093      2108.9876     -3052.2727      165.24999     -2887.0227      113.28346    
      2400   1299.3218      145.85848     -3053.2336      167.78257     -2885.451       112.66117    
      2500   1232.6368     -2678.0429     -3052.8838      159.17149     -2893.7123      112.02566    
      2600   1249.4116     -1940.596      -3054.7946      161.33763     -2893.457       111.08908    
      2700   1272.372       2198.0638     -3057.621       164.30252     -2893.3185      110.21665    
      2800   1319.7425      3230.058      -3058.3192      170.41951     -2887.8997      109.69397    
      2900   1352.4218      828.40906     -3060.187       174.63942     -2885.5475      108.76186    
      3000   1294.7736     -1322.2281     -3052.0581      167.19527     -2884.8628      108.15734    
      3100   1260.6054     -2947.9682     -3049.4804      162.78309     -2886.6973      107.57862    
      3200   1324.9173     -1106.2911     -3046.424       171.08774     -2875.3363      106.684      
      3300   1374.6912      784.63355     -3051.5342      177.5151      -2874.0191      106.16864    
      3400   1338.2074      1870.5055     -3047.2782      172.8039      -2874.4743      105.65135    
      3500   1334.9454      285.97008     -3044.9191      172.38269     -2872.5364      104.77265    
      3600   1314.2508     -939.56986     -3039.3619      169.71036     -2869.6515      104.1313     
      3700   1370.2709     -633.37268     -3041.5183      176.9443      -2864.574       103.5974     
      3800   1373.9984      23.673358     -3037.4381      177.42563     -2860.0125      102.81007    
      3900   1337.4717     -393.54453     -3035.3859      172.7089      -2862.677       102.25392    
      4000   1323.0917     -1406.9934     -3034.3722      170.852       -2863.5202      101.70376    
      4100   1351.1184     -2610.9211     -3045.2737      174.47111     -2870.8026      101.71696    
      4200   1255.5684      2387.1316     -3035.7913      162.13266     -2873.6586      101.48609    
      4300   1307.3723      2219.206      -3040.1077      168.82214     -2871.2855      101.19079    
      4400   1324.778       1436.6218     -3037.7397      171.06976     -2866.6699      101.35072    
      4500   1358.1943     -863.01019     -3037.4777      175.38483     -2862.0929      100.72273    
      4600   1324.2122     -1256.388      -3034.2316      170.99669     -2863.2349      100.06772    
      4700   1402.485      -7.5239952     -3036.719       181.10414     -2855.6149      99.901149    
      4800   1344.8996      304.36058     -3033.0257      173.66807     -2859.3577      99.437476    
      4900   1297.1635     -1993.6021     -3039.4274      167.50388     -2871.9235      98.734776    
      5000   1326.7726      1188.7033     -3034.4475      171.32732     -2863.1202      97.957896    
      5100   1318.3338      1156.8606     -3038.0328      170.23761     -2867.7952      97.641785    
      5200   1391.0276     -595.58009     -3041.3164      179.62463     -2861.6918      98.127143    
      5300   1319.5753     -1066.0442     -3035.2617      170.39792     -2864.8638      98.098581    
      5400   1295.2735     -1562.5871     -3036.6456      167.25981     -2869.3858      97.338554    
      5500   1307.2192     -699.1978      -3042.3307      168.80238     -2873.5283      96.518557    
      5600   1339.847       1023.1098     -3044.625       173.01562     -2871.6094      95.849994    
      5700   1317.2193     -134.84355     -3049.0598      170.09369     -2878.9661      95.271555    
      5800   1301.6924     -554.04327     -3042.2454      168.08869     -2874.1567      94.485689    
      5900   1355.0585     -2973.1563     -3052.9873      174.97991     -2878.0074      93.780803    
      6000   1317.2151      422.66299     -3041.1145      170.09316     -2871.0213      93.383173    
      6100   1260.3878      973.71133     -3043.0572      162.755       -2880.3022      92.999927    
      6200   1265.5482      1098.369      -3041.8749      163.42135     -2878.4535      93.160392    
      6300   1305.1485     -1077.2587     -3046.5853      168.53498     -2878.0504      93.137243    
      6400   1315.7069     -618.04074     -3041.573       169.89839     -2871.6746      92.342952    
      6500   1293.9863      2411.9354     -3025.7007      167.0936      -2858.6071      91.748614    
      6600   1295.3303     -324.98354     -3035.2408      167.26715     -2867.9737      90.932674    
      6700   1284.9302     -2463.3901     -3036.971       165.92418     -2871.0468      90.237136    
      6800   1322.6039     -344.79225     -3038.7751      170.78901     -2867.9861      89.544564    
      6900   1318.0187      1804.8496     -3039.7724      170.19693     -2869.5755      88.835378    
      7000   1274.7939      1782.7205     -3034.334       164.61526     -2869.7188      88.171057    
      7100   1341.1106     -1081.2519     -3040.6279      173.1788      -2867.4491      87.408545    
      7200   1299.9023     -686.49817     -3032.9248      167.85753     -2865.0673      86.676625    
      7300   1333.1547     -3575.7142     -3033.5686      172.15145     -2861.4172      85.920999    
      7400   1374.9426     -1080.2707     -3037.5714      177.54755     -2860.0239      85.156149    
      7500   1385.3987      1054.4129     -3037.4245      178.89777     -2858.5268      84.58392     
      7600   1261.4187      2188.371      -3026.8519      162.88812     -2863.9638      84.775098    
      7700   1352.4381     -2197.4238     -3041.2303      174.64153     -2866.5888      84.159944    
      7800   1287.2914     -887.53275     -3033.4489      166.22908     -2867.2198      83.495058    
      7900   1301.436      -1539.4177     -3035.654       168.05558     -2867.5985      83.009452    
      8000   1329.5841     -813.69761     -3040.077       171.69038     -2868.3866      82.329971    
      8100   1335.0259      1854.4501     -3038.0727      172.39308     -2865.6796      81.820867    
      8200   1296.5034      2288.8639     -3035.1716      167.41863     -2867.753       81.205419    
      8300   1363.4846      17.42009      -3034.9435      176.06797     -2858.8755      80.39714     
      8400   1298.6843     -1797.325      -3028.2277      167.70025     -2860.5275      79.61681     
      8500   1274.1692     -3298.2942     -3032.0661      164.5346      -2867.5315      78.809396    
      8600   1336.1403     -421.3792      -3034.2733      172.53699     -2861.7363      78.002013    
      8700   1376.5385      2493.1933     -3038.3521      177.75363     -2860.5984      77.198606    
      8800   1343.4548      5157.0688     -3029.3774      173.48151     -2855.8959      76.426368    
      8900   1322.1632     -224.38379     -3034.7278      170.73211     -2863.9957      75.662303    
      9000   1295.6083     -4717.6015     -3031.532       167.30305     -2864.2289      74.887334    
      9100   1289.2807     -2921.287      -3032.991       166.48595     -2866.505       74.147519    
      9200   1286.3753      2198.301      -3035.9853      166.11078     -2869.8745      73.498467    
      9300   1369.2833      4091.4303     -3040.3814      176.81677     -2863.5646      72.742205    
      9400   1281.0371      2033.379      -3035.5715      165.42145     -2870.15        71.994015    
      9500   1303.4836     -3636.5996     -3039.7088      168.31999     -2871.3888      71.213765    
      9600   1285.936      -1678.895      -3027.0301      166.05405     -2860.976       70.4654      
      9700   1316.4125      676.09166     -3028.6927      169.98951     -2858.7032      69.734267    
      9800   1367.4823      2476.3518     -3030.6168      176.58421     -2854.0326      69.125409    
      9900   1347.686       759.36939     -3033.1479      174.02789     -2859.12        68.538143    
     10000   1283.728      -2141.6584     -3032.4143      165.76894     -2866.6454      67.901772    
     10100   1320.2065     -1890.2555     -3033.3576      170.47944     -2862.8782      67.14436     
     10200   1315.2301     -43.588512     -3030.6373      169.83683     -2860.8004      66.428724    
     10300   1312.8996      1888.3763     -3031.4068      169.53589     -2861.8709      65.727492    
     10400   1312.1872      2263.6377     -3035.7346      169.4439      -2866.2907      64.9958      
     10500   1301.1384     -172.2632      -3034.6956      168.01715     -2866.6785      64.325795    
     10600   1318.0628     -4526.0119     -3040.7942      170.20261     -2870.5916      63.579997    
     10700   1345.5024     -1498.4211     -3043.4742      173.74591     -2869.7283      62.838099    
     10800   1290.7777      3874.9444     -3034.2719      166.67926     -2867.5927      62.097527    
     10900   1329.9929      1350.725      -3046.1666      171.74316     -2874.4234      61.389079    
     11000   1284.556      -1548.4611     -3044.2773      165.87585     -2878.4015      60.660276    
     11100   1250.9869     -1142.8853     -3034.2614      161.54105     -2872.7204      59.971174    
     11200   1309.6435     -2315.1877     -3037.0546      169.11542     -2867.9392      59.272513    
     11300   1372.2922     -282.4371      -3037.8608      177.20531     -2860.6554      58.544563    
     11400   1313.3277      3644.9433     -3027.14        169.59117     -2857.5488      57.863264    
     11500   1344.5249      1107.5552     -3027.9877      173.6197      -2854.368       57.15143     
     11600   1310.5632     -1527.8867     -3028.226       169.23418     -2858.9918      56.447683    
     11700   1300.8965     -2001.2273     -3028.18        167.98591     -2860.194       55.737364    
     11800   1373.5933     -1157.3781     -3035.6576      177.37331     -2858.2843      55.049805    
     11900   1360.8259      2476.7434     -3037.1447      175.72466     -2861.42        54.335549    
     12000   1367.5922      3711.4189     -3033.3759      176.5984      -2856.7775      53.628096    
     12100   1280.8228      889.70047     -3022.0418      165.39378     -2856.648       52.923426    
     12200   1318.7823     -3633.7988     -3027.1595      170.29553     -2856.8639      52.219309    
     12300   1251.0358     -1438.4235     -3024.4327      161.54737     -2862.8853      51.540068    
     12400   1347.5184      2798.5646     -3032.7368      174.00624     -2858.7306      50.885185    
     12500   1333.5054      3208.7757     -3040.7629      172.19673     -2868.5662      50.206905    
     12600   1310.7548      468.83904     -3040.4723      169.25892     -2871.2133      49.521485    
     12700   1244.9014     -452.32022     -3034.4828      160.75522     -2873.7276      48.828361    
     12800   1307.3524     -2360.8406     -3036.4479      168.81957     -2867.6283      48.129977    
     12900   1272.6243     -554.27348     -3030.7667      164.3351      -2866.4316      47.445765    
     13000   1285.4456      2375.7807     -3028.8025      165.99072     -2862.8117      46.752728    
     13100   1336.157      -740.55442     -3035.9287      172.53913     -2863.3896      46.081079    
     13200   1283.4824     -1892.4114     -3040.1605      165.73722     -2874.4232      45.412246    
     13300   1285.1363     -224.79642     -3039.8096      165.95079     -2873.8588      44.717476    
     13400   1297.6719      725.68726     -3044.1839      167.56952     -2876.6144      44.032833    
     13500   1286.7663      3562.6333     -3039.8528      166.16127     -2873.6915      43.334652    
     13600   1318.5069      2279.2903     -3036.1835      170.25997     -2865.9235      42.634005    
     13700   1287.2213     -1397.4593     -3032.8243      166.22003     -2866.6042      41.940725    
     13800   1280.1318     -2674.6261     -3028.5956      165.30455     -2863.291       41.248909    
     13900   1237.2069     -986.41591     -3030.3353      159.76162     -2870.5737      40.561273    
     14000   1271.2362      3087.3684     -3033.5506      164.15586     -2869.3947      39.879659    
     14100   1284.1502      4526.1011     -3033.928       165.82345     -2868.1046      39.207466    
     14200   1298.1785      24.579681     -3037.4565      167.63494     -2869.8216      38.543766    
     14300   1253.0041     -4095.118      -3034.4983      161.80153     -2872.6968      37.863531    
     14400   1305.0439     -3353.6878     -3034.3136      168.52147     -2865.7921      37.173171    
     14500   1257.0631     -680.47885     -3036.668       162.32567     -2874.3423      36.501443    
     14600   1314.8079      1492.1325     -3041.3105      169.78231     -2871.5281      35.821035    
     14700   1309.5773      4198.7155     -3041.3655      169.10688     -2872.2587      35.155605    
     14800   1244.116       2982.9151     -3037.5219      160.6538      -2876.8681      34.483095    
     14900   1253.0567     -1858.2685     -3037.5571      161.80832     -2875.7488      33.808763    
     15000   1277.2376     -4192.2072     -3036.2129      164.93082     -2871.2821      33.144983    
     15100   1266.5563     -3144.8524     -3038.1201      163.55153     -2874.5685      32.514806    
     15200   1250.7379      2899.1809     -3031.8312      161.50889     -2870.3223      31.839295    
     15300   1308.3279      2898.4743     -3040.2011      168.94554     -2871.2556      31.172192    
     15400   1301.3093      989.57709     -3037.9299      168.03922     -2869.8907      30.502859    
     15500   1307.0338     -1414.5237     -3036.0371      168.77843     -2867.2587      29.823011    
     15600   1287.5558     -1826.6685     -3032.9027      166.26322     -2866.6395      29.163906    
     15700   1321.7602     -1004.4685     -3036.2838      170.68006     -2865.6038      28.47603     
     15800   1355.3468      817.60441     -3041.6958      175.01713     -2866.6787      27.804169    
     15900   1325.3296     -412.12866     -3040.2008      171.14098     -2869.0598      27.132938    
     16000   1302.1754      1165.0494     -3038.0298      168.15106     -2869.8788      26.459507    
     16100   1280.2898      2310.5804     -3032.8982      165.32495     -2867.5733      25.79492     
     16200   1335.3806     -491.79791     -3035.3042      172.43887     -2862.8653      25.129816    
     16300   1244.679      -1337.7009     -3031.6407      160.7265      -2870.9142      24.471436    
     16400   1265.3705     -1093.5661     -3033.608       163.39841     -2870.2096      23.831822    
     16500   1331.0151      2574.3435     -3038.66        171.87516     -2866.7848      23.164332    
     16600   1311.8922      4149.0223     -3033.0706      169.4058      -2863.6648      22.504777    
     16700   1319.4008      1908.8449     -3032.3416      170.37539     -2861.9662      21.837514    
     16800   1307.8992     -552.70843     -3021.5315      168.89018     -2852.6413      21.174314    
     16900   1414.4423     -4275.81       -3028.9788      182.64819     -2846.3307      20.512348    
     17000   1357.8383     -2562.8746     -3025.3859      175.33887     -2850.047       19.851686    
     17100   1360.9692      579.55375     -3025.2146      175.74315     -2849.4715      19.189822    
     17200   1393.3782      1582.0826     -3028.4674      179.92816     -2848.5392      18.522286    
     17300   1365.1565      4044.5821     -3027.5487      176.28387     -2851.2648      17.865171    
     17400   1346.4186      523.64762     -3027.4942      173.86423     -2853.6299      17.206556    
     17500   1315.2282     -1516.4777     -3022.5746      169.83659     -2852.738       16.540776    
     17600   1308.4086     -3132.2908     -3027.7638      168.95595     -2858.8079      15.878189    
     17700   1362.233      -765.83619     -3030.5401      175.90635     -2854.6337      15.219966    
     17800   1328.0475      3838.1013     -3026.8338      171.49195     -2855.3419      14.555636    
     17900   1314.7365      1266.2317     -3035.4325      169.77308     -2865.6594      13.897848    
     18000   1317.5155      450.81355     -3030.8712      170.13194     -2860.7393      13.230892    
     18100   1329.2087     -2506.6693     -3033.4558      171.64189     -2861.8139      12.564387    
     18200   1298.712      -2334.9517     -3031.1631      167.70383     -2863.4593      11.897397    
     18300   1326.481       681.31296     -3029.5704      171.28966     -2858.2808      11.229941    
     18400   1324.8994      1867.8642     -3033.1161      171.08543     -2862.0306      10.563736    
     18500   1295.9226      1046.1051     -3031.8238      167.34363     -2864.4802      9.8983873    
     18600   1306.86       -741.80794     -3031.3828      168.75599     -2862.6268      9.2363564    
     18700   1275.9776     -1078.6711     -3028.6614      164.76811     -2863.8933      8.5773796    
     18800   1239.973       426.46477     -3028.5333      160.11882     -2868.4145      7.916061     
     18900   1283.6954     -671.67202     -3037.2991      165.76472     -2871.5344      7.2555595    
     19000   1284.5638      549.94341     -3033.7576      165.87686     -2867.8807      6.5936666    
     19100   1239.7352     -340.68395     -3034.6223      160.0881      -2874.5341      5.9338155    
     19200   1260.8202     -208.49192     -3033.9948      162.81083     -2871.184       5.2773246    
     19300   1270.3721      363.54827     -3037.4746      164.04428     -2873.4303      4.6208268    
     19400   1271.6682      999.55616     -3036.4968      164.21164     -2872.2852      3.9638776    
     19500   1294.3419      2299.9796     -3036.4457      167.13951     -2869.3062      3.3066213    
     19600   1269.3692     -225.51741     -3033.0109      163.91477     -2869.0961      2.648983     
     19700   1269.2507     -2010.8591     -3029.7348      163.89946     -2865.8353      1.9910514    
     19800   1291.9464     -1658.7788     -3031.213       166.83019     -2864.3829      1.333631     
     19900   1340.1326     -1252.2341     -3037.3883      173.05251     -2864.3358      0.67650948   
     20000   1291.3312      3741.0525     -3027.4006      166.75074     -2860.6499      0.019750632  
     20003   1307.6164      3570.7428     -3028.5771      168.85366     -2859.7234      0            
Loop time of 131.678 on 4 procs for 20000 steps with 1000 atoms

Performance: 13.123 ns/day, 1.829 hours/ns, 151.886 timesteps/s, 151.886 katom-step/s
93.7% CPU use with 4 MPI tasks x 1 OpenMP threads

MPI task timing breakdown:
Section |  min time  |  avg time  |  max time  |%varavg| %total
---------------------------------------------------------------
Pair    | 115.27     | 117.29     | 119.36     |  18.3 | 89.07
Neigh   | 0.54545    | 0.64598    | 0.7577     |  12.5 |  0.49
Comm    | 7.1218     | 9.2781     | 11.412     |  68.5 |  7.05
Output  | 0.0046847  | 0.019745   | 0.064819   |  18.5 |  0.01
Modify  | 4.0543     | 4.0768     | 4.1113     |   1.1 |  3.10
Other   |            | 0.3657     |            |       |  0.28

Nlocal:            250 ave         278 max         226 min
Histogram: 2 0 0 0 0 0 0 0 1 1
Nghost:           1317 ave        1376 max        1260 min
Histogram: 1 1 0 0 0 0 0 0 1 1
Neighs:         8532.5 ave       10353 max        6841 min
Histogram: 2 0 0 0 0 0 0 0 0 2
FullNghs:        17065 ave       20733 max       13736 min
Histogram: 2 0 0 0 0 0 0 0 1 1

Total # of neighbors = 68260
Ave neighs/atom = 68.26
Neighbor list builds = 590
Dangerous builds = 0
System init for write_data ...
Per MPI rank memory allocation (min/avg/max) = 9.293 | 9.309 | 9.322 Mbytes
   Step          Temp          Press          PotEng         KinEng         TotEng        CPULeft    
         0   1307.6164      3570.7428     -3028.5771      168.85366     -2859.7234      0            
       100   1274.4833     -3895.8953     -3050.8625      164.57516     -2886.2874      652.51591    
       200   1061.7405     -4409.1999     -3053.4822      137.10349     -2916.3787      647.70509    
       300   1034.1766      86.704822     -3076.0161      133.54414     -2942.4719      625.80062    
       400   990.19604      3973.4079     -3091.275       127.86489     -2963.4101      639.27808    
       500   932.28128      1145.1783     -3101.0739      120.38631     -2980.6876      644.80413    
       600   932.40245     -2819.1395     -3111.2367      120.40195     -2990.8347      640.54211    
       700   933.39333     -1954.3105     -3115.2369      120.52991     -2994.707       643.69856    
       800   943.95229      1343.8929     -3117.4386      121.89339     -2995.5452      648.30687    
       900   954.18191      1251.6543     -3122.7418      123.21435     -2999.5275      646.00971    
      1000   914.05656      899.15849     -3120.7095      118.03293     -3002.6766      642.72664    
      1100   920.50154     -1322.6905     -3116.8159      118.86518     -2997.9507      636.54935    
      1200   971.09906     -316.04193     -3117.9417      125.39888     -2992.5428      632.26299    
      1300   958.81909      1134.259      -3117.8158      123.81316     -2994.0026      628.63938    
      1400   926.65986     -1694.5201     -3119.0182      119.66041     -2999.3578      623.93044    
      1500   939.44804     -1765.4403     -3122.8711      121.31176     -3001.5593      631.89421    
      1600   930.36249      152.25769     -3121.1636      120.13853     -3001.025       629.91074    
      1700   933.85125      2251.6811     -3122.3141      120.58904     -3001.7251      627.96528    
      1800   932.88588     -683.46028     -3122.2151      120.46438     -3001.7507      625.91823    
      1900   924.19971     -1340.5547     -3120.1638      119.34273     -3000.8211      622.14331    
      2000   934.585       -176.27499     -3117.1091      120.68379     -2996.4253      619.07361    
      2100   942.19582      1034.2346     -3114.5761      121.66658     -2992.9096      618.09323    
      2200   949.67453     -603.1656      -3117.8188      122.63231     -2995.1865      616.63244    
      2300   915.60505     -1058.4431     -3118.7733      118.23289     -3000.5404      613.7554     
      2400   913.81032      624.29736     -3120.8371      118.00114     -3002.836       612.14806    
      2500   952.69639      1515.1903     -3125.4005      123.02253     -3002.378       610.74306    
      2600   981.36093      1689.4515     -3122.9368      126.72401     -2996.2128      612.44133    
      2700   966.93114     -1255.0277     -3119.6228      124.86067     -2994.7622      610.11565    
      2800   901.65357     -2116.5517     -3114.2397      116.43132     -2997.8083      608.32272    
      2900   908.83731      651.14488     -3116.0503      117.35897     -2998.6913      606.97574    
      3000   930.5713       3419.1804     -3120.1484      120.1655      -2999.9829      605.73756    
      3100   921.74594      1987.1252     -3125.9256      119.02587     -3006.8997      604.67236    
      3200   917.80526     -1901.6143     -3128.3956      118.51701     -3009.8786      602.90752    
      3300   936.2782      -1935.4064     -3129.0451      120.90243     -3008.1427      602.48951    
      3400   979.09298      1731.0816     -3128.3715      126.43114     -3001.9403      600.66517    
      3500   938.1249       1997.6316     -3123.2767      121.1409      -3002.1358      599.68146    
      3600   903.14512     -3161.281      -3127.2821      116.62393     -3010.6582      599.20124    
      3700   925.03682     -2040.9051     -3129.1794      119.45082     -3009.7285      598.51264    
      3800   953.06521      2534.2053     -3126.5471      123.07015     -3003.4769      596.96626    
      3900   974.16374      125.98484     -3127.4648      125.79463     -3001.6701      595.67506    
      4000   908.24591     -1074.3506     -3123.1974      117.2826      -3005.9148      593.9394     
      4100   911.58271     -649.07516     -3124.799       117.71348     -3007.0855      592.9664     
      4200   925.12807      1037.0842     -3124.0331      119.46261     -3004.5705      592.71673    
      4300   908.51155      2188.6435     -3121.1828      117.3169      -3003.8659      590.98997    
      4400   936.09971     -840.22246     -3124.7633      120.87938     -3003.8839      590.39807    
      4500   921.06453     -800.35643     -3123.0464      118.93788     -3004.1085      590.29764    
      4600   974.17592     -760.68559     -3122.5531      125.7962      -2996.7569      590.47699    
      4700   964.88744      821.81028     -3118.3937      124.59677     -2993.7969      589.91591    
      4800   908.32014      806.62206     -3116.6753      117.29218     -2999.3831      590.2687     
      4900   946.2919      -2253.6768     -3124.1515      122.19551     -3001.956       589.64931    
      5000   942.63907     -1169.6325     -3125.3326      121.72382     -3003.6088      588.72208    
      5100   945.18581      1911.1283     -3124.8264      122.05268     -3002.7737      588.73022    
      5200   957.25318      1144.7585     -3123.9044      123.61095     -3000.2934      587.68416    
      5300   927.02812     -1214.2001     -3119.2438      119.70796     -2999.5358      587.0419     
      5400   952.77393     -2247.0072     -3120.9043      123.03254     -2997.8718      585.83992    
      5500   955.49647     -160.40858     -3120.4382      123.3841      -2997.0541      585.05273    
      5600   934.79486      1588.8648     -3123.4939      120.71089     -3002.783       584.31766    
      5700   938.29805     -499.63095     -3127.432       121.16326     -3006.2687      583.67959    
      5800   944.86716     -1222.8286     -3127.2647      122.01153     -3005.2532      582.8975     
      5900   941.66311      836.37272     -3121.7291      121.59779     -3000.1313      581.87338    
      6000   977.6215       360.04293     -3119.1771      126.24113     -2992.936       580.80378    
      6100   945.06127     -2298.1494     -3116.4989      122.0366      -2994.4623      579.74881    
      6200   925.52179     -937.80282     -3117.9621      119.51345     -2998.4486      578.56751    
      6300   944.66224      892.02023     -3124.8796      121.98507     -3002.8945      577.55821    
      6400   956.60708      1417.2418     -3128.169       123.52752     -3004.6415      577.46148    
      6500   917.40767      79.446592     -3124.9843      118.46566     -3006.5186      576.78007    
      6600   943.26905     -1958.3957     -3129.1733      121.80517     -3007.3681      576.02908    
      6700   938.757        615.56126     -3128.1722      121.22252     -3006.9497      574.88382    
      6800   933.39062      1238.6216     -3128.0668      120.52956     -3007.5372      573.79268    
      6900   937.25377      542.7008      -3129.5485      121.02841     -3008.5201      573.51932    
      7000   904.1506      -266.75352     -3124.7583      116.75377     -3008.0045      572.64411    
      7100   943.06061      330.65129     -3126.1717      121.77825     -3004.3934      572.19965    
      7200   939.90069      683.66059     -3120.7799      121.37021     -2999.4097      573.94897    
      7300   982.55698      327.19429     -3123.0259      126.87845     -2996.1474      574.11286    
      7400   947.08703     -677.23555     -3120.4453      122.29819     -2998.1471      574.11335    
      7500   937.76794     -2254.296      -3125.0422      121.0948      -3003.9474      573.61851    
      7600   939.84244     -724.53438     -3127.401       121.36269     -3006.0383      572.99278    
      7700   960.88881      404.51895     -3134.1255      124.08042     -3010.0451      574.4919     
      7800   911.50716      2183.9896     -3135.4703      117.70373     -3017.7665      574.09679    
      7900   921.27485      775.22139     -3136.2222      118.96504     -3017.2572      573.38759    
      8000   906.0815       121.60132     -3129.4826      117.00311     -3012.4795      574.1504     
      8100   949.91075     -1643.1803     -3129.219       122.66282     -3006.5562      575.01502    
      8200   934.87657     -497.87304     -3124.9222      120.72144     -3004.2008      574.04617    
      8300   947.3983       568.51491     -3124.2006      122.33838     -3001.8622      573.07291    
      8400   942.64488     -330.86324     -3123.6474      121.72457     -3001.9228      572.31574    
      8500   903.42759     -1219.0653     -3124.3574      116.6604      -3007.697       572.03607    
      8600   929.85973     -1481.8583     -3131.2281      120.07361     -3011.1545      571.51631    
      8700   959.33687      1649.2977     -3133.4679      123.88002     -3009.5879      571.01734    
      8800   979.15159      2564.9075     -3129.9651      126.43871     -3003.5264      570.29987    
      8900   933.65041     -1332.8038     -3121.3961      120.5631      -3000.833       570.03857    
      9000   970.16311     -2308.1088     -3118.8464      125.27802     -2993.5683      569.26704    
      9100   976.46708     -830.76544     -3117.3462      126.09206     -2991.2541      570.51155    
      9200   925.26683      471.07212     -3116.2469      119.48052     -2996.7663      571.27622    
      9300   972.17228     -91.120335     -3125.6179      125.53747     -3000.0805      570.60486    
      9400   924.69012      1651.5814     -3123.1141      119.40605     -3003.708       569.55119    
      9500   937.9049      -315.68246     -3126.9597      121.11249     -3005.8472      569.64121    
      9600   905.14818     -896.54218     -3124.0342      116.88259     -3007.1516      568.80044    
      9700   923.05901      461.42276     -3123.8448      119.19543     -3004.6494      567.9994     
      9800   958.53571      1151.7379     -3122.1907      123.77656     -2998.4141      567.53804    
      9900   925.21408      690.64936     -3117.5431      119.47371     -2998.0694      566.90018    
     10000   916.63386     -1312.5312     -3120.9345      118.36574     -3002.5688      566.61281    
     10100   919.17134     -1140.3438     -3124.6153      118.69341     -3005.9219      567.64178    
     10200   919.31079      2672.3139     -3127.7765      118.71142     -3009.065       566.79484    
     10300   924.14851     -398.3115      -3134.2467      119.33611     -3014.9106      565.94205    
     10400   878.40748     -283.06462     -3128.5712      113.42954     -3015.1417      565.42842    
     10500   924.39795      510.6803      -3126.1841      119.36833     -3006.8158      566.48754    
     10600   944.09857     -769.98491     -3125.133       121.91228     -3003.2208      565.51191    
     10700   946.70341     -943.95921     -3121.0079      122.24865     -2998.7593      564.73985    
     10800   973.74598     -1541.5047     -3122.3363      125.74068     -2996.5956      564.68605    
     10900   916.61632      523.20756     -3119.3524      118.36348     -3000.9889      564.09182    
     11000   941.65055     -784.86241     -3128.9828      121.59617     -3007.3866      563.36804    
     11100   931.11966      2966.2595     -3128.0993      120.23631     -3007.863       562.72975    
     11200   923.52052      634.80823     -3126.2539      119.25502     -3006.9989      562.24119    
     11300   924.39089     -2254.0909     -3122.362       119.36741     -3002.9945      562.52853    
     11400   976.85667     -1700.1088     -3120.3392      126.14237     -2994.1968      561.48761    
     11500   981.38983     -991.36224     -3122.1768      126.72774     -2995.449       560.9021     
     11600   925.06785      1988.8343     -3120.7963      119.45483     -3001.3415      560.1569     
     11700   954.50208     -450.83385     -3129.0499      123.2557      -3005.7942      559.41784    
     11800   952.07723     -1574.9738     -3130.821       122.94257     -3007.8784      558.76121    
     11900   927.46157      179.10633     -3127.0003      119.76393     -3007.2363      558.46103    
     12000   975.34702      1841.9475     -3128.0411      125.94742     -3002.0936      558.19846    
     12100   984.58242     -25.468537     -3124.7057      127.14        -2997.5657      557.6593     
     12200   930.82536     -2253.7428     -3124.1315      120.1983      -3003.9332      557.46649    
     12300   892.56962     -96.120043     -3122.8377      115.2583      -3007.5794      556.80403    
     12400   933.30014      2455.1084     -3127.3883      120.51787     -3006.8704      556.26658    
     12500   916.09995      2159.5947     -3126.147       118.2968      -3007.8502      555.57216    
     12600   954.62043     -3104.8344     -3128.1707      123.27098     -3004.8997      554.83797    
     12700   983.51564     -1809.9068     -3126.5809      127.00225     -2999.5786      553.80786    
     12800   965.73535      1637.7056     -3126.5683      124.70626     -3001.862       552.9479     
     12900   911.36364      213.23155     -3126.99        117.68519     -3009.3048      551.93943    
     13000   917.49713      625.06371     -3129.1194      118.47722     -3010.6422      551.0109     
     13100   912.27275      1153.0177     -3126.2552      117.80259     -3008.4526      550.12167    
     13200   912.85956      815.56463     -3121.7683      117.87836     -3003.8899      549.70575    
     13300   972.34994      172.75001     -3122.5043      125.56041     -2996.9439      548.96426    
     13400   975.80066      833.85515     -3119.7507      126.006       -2993.7447      548.55624    
     13500   920.40162     -2662.8259     -3119.691       118.85228     -3000.8387      548.19223    
     13600   895.86708     -1169.6254     -3121.7006      115.68411     -3006.0165      547.95323    
     13700   960.14381      2391.5617     -3128.5845      123.98422     -3004.6003      547.12661    
     13800   940.91107      2876.5069     -3125.9965      121.50068     -3004.4958      546.38609    
     13900   898.65952     -2350.514      -3122.2867      116.0447      -3006.242       546.34128    
     14000   920.11514     -3597.759      -3121.7954      118.81528     -3002.9801      545.58849    
     14100   973.36149      345.72224     -3123.1215      125.69103     -2997.4304      545.0147     
     14200   967.59644      3286.4237     -3124.5266      124.94658     -2999.58        544.27483    
     14300   936.26669     -892.8229      -3126.544       120.90095     -3005.643       543.59571    
     14400   887.15782     -2078.9471     -3120.4424      114.55947     -3005.8829      542.97405    
     14500   953.30544     -22.166479     -3125.5147      123.10117     -3002.4135      542.45708    
     14600   945.07399      2079.5862     -3123.4128      122.03824     -3001.3745      541.51043    
     14700   955.78566      196.96646     -3124.5752      123.42145     -3001.1537      540.56344    
     14800   885.19799     -1021.6529     -3122.434       114.3064      -3008.1276      539.68758    
     14900   884.97278     -1872.5189     -3126.4102      114.27732     -3012.1328      538.71181    
     15000   944.17904      1372.0999     -3129.8909      121.92268     -3007.9683      538.03796    
     15100   927.76604      2897.0272     -3125.4393      119.80325     -3005.6361      537.13749    
     15200   936.98328     -802.33391     -3124.6046      120.99348     -3003.6111      536.34247    
     15300   933.57495     -1413.6808     -3120.163       120.55336     -2999.6096      535.49397    
     15400   977.9136      -752.1249      -3117.611       126.27885     -2991.3321      534.68123    
     15500   975.99866     -392.731       -3119.1517      126.03157     -2993.1201      533.9153     
     15600   918.48296      832.79677     -3115.7586      118.60452     -2997.1541      533.19018    
     15700   938.45042     -163.32656     -3121.9148      121.18293     -3000.7318      532.78966    
     15800   910.65727      490.02928     -3120.3165      117.59398     -3002.7225      532.01305    
     15900   925.68499     -321.97965     -3120.8196      119.53452     -3001.2851      531.0644     
     16000   925.95688      690.00053     -3120.3058      119.56963     -3000.7362      530.21362    
     16100   942.34133      146.27056     -3121.9104      121.68537     -3000.225       529.33931    
     16200   953.63879     -289.65424     -3120.8268      123.14422     -2997.6826      528.5274     
     16300   959.31809     -261.28443     -3118.8604      123.87759     -2994.9828      527.74942    
     16400   953.24273     -1219.4959     -3121.6718      123.09308     -2998.5788      527.1503     
     16500   907.41431      1055.719      -3122.3578      117.17521     -3005.1826      526.31214    
     16600   950.83902      56.858769     -3130.4543      122.78268     -3007.6716      525.65509    
     16700   920.41008      1241.8984     -3129.4485      118.85337     -3010.5951      524.86403    
     16800   898.29594      504.72415     -3127.657       115.99775     -3011.6593      524.09066    
     16900   952.71468      97.162315     -3125.4407      123.02489     -3002.4158      523.37081    
     17000   915.89704      898.96461     -3117.6996      118.2706      -2999.429       522.70029    
     17100   943.96524     -1645.9656     -3122.5743      121.89507     -3000.6792      521.93346    
     17200   936.79958     -705.68217     -3126.3024      120.96976     -3005.3326      521.22947    
     17300   890.25321      1839.4672     -3126.2547      114.95919     -3011.2955      520.39842    
     17400   911.51165      1672.1241     -3130.3891      117.70431     -3012.6848      519.80978    
     17500   944.95905      1276.5675     -3124.7369      122.0234      -3002.7135      519.5224     
     17600   927.76424     -1657.3578     -3119.825       119.80302     -3000.022       518.86322    
     17700   925.04635     -1803.9534     -3117.9889      119.45205     -2998.5368      518.15452    
     17800   939.63959      1095.1329     -3118.466       121.33649     -2997.1295      517.37764    
     17900   970.81918      471.49976     -3120.9736      125.36274     -2995.6109      516.82222    
     18000   920.78516     -67.197023     -3120.5222      118.9018      -3001.6204      516.31452    
     18100   934.61031     -1944.7108     -3125.2214      120.68706     -3004.5343      515.80252    
     18200   916.46623      378.6019      -3119.8149      118.34409     -3001.4709      515.17676    
     18300   963.82181      2431.435      -3117.5007      124.45916     -2993.0415      514.86209    
     18400   960.8787       151.85273     -3115.7768      124.07912     -2991.6977      514.45872    
     18500   935.82564     -2548.8662     -3113.9218      120.84399     -2993.0778      513.80202    
     18600   949.30455     -3015.7836     -3115.2312      122.58454     -2992.6467      512.87526    
     18700   947.90209      1023.5652     -3117.9887      122.40344     -2995.5853      512.51537    
     18800   915.08876      2046.5377     -3121.1096      118.16622     -3002.9434      511.89302    
     18900   926.18944      206.8263      -3125.0368      119.59966     -3005.4371      511.60036    
     19000   923.69289     -873.99903     -3123.6825      119.27728     -3004.4053      510.79705    
     19100   917.74184     -221.39271     -3118.033       118.50882     -2999.5242      509.94215    
     19200   933.58117     -442.92563     -3116.9928      120.55416     -2996.4386      509.15664    
     19300   942.32778     -1105.2035     -3119.2465      121.68362     -2997.5629      508.3778     
     19400   913.25668      104.59997     -3116.5799      117.92964     -2998.6503      507.51556    
     19500   963.594       -522.07172     -3120.0658      124.42975     -2995.6361      506.62816    
     19600   980.45097      876.07133     -3118.3288      126.6065      -2991.7223      505.79496    
     19700   934.53443      144.14193     -3110.9289      120.67726     -2990.2516      505.1669     
     19800   906.41757     -1198.4241     -3111.3985      117.0465      -2994.352       504.29092    
     19900   899.40498     -419.22214     -3115.9856      116.14096     -2999.8447      503.45272    
     20000   897.43402      3393.2561     -3118.5809      115.88645     -3002.6945      502.60595    
     20100   935.13992      1916.4925     -3127.3761      120.75545     -3006.6207      501.84277    
     20200   869.22648     -445.19302     -3125.039       112.24398     -3012.795       501.24082    
     20300   910.72381     -1272.7903     -3126.0552      117.60257     -3008.4526      500.62207    
     20400   947.34091      306.77144     -3124.82        122.33097     -3002.489       499.99082    
     20500   962.95945      772.33848     -3123.2702      124.34781     -2998.9224      499.14078    
     20600   962.38558     -1187.3513     -3120.3489      124.2737      -2996.0752      498.40409    
     20700   930.10838     -806.37023     -3115.3482      120.10572     -2995.2425      497.94321    
     20800   933.10198      422.09127     -3112.5528      120.49228     -2992.0605      497.17004    
     20900   963.33241      1137.2927     -3110.8721      124.39597     -2986.4762      497.13639    
     21000   946.56444     -343.94756     -3110.4313      122.2307      -2988.2006      496.28949    
     21100   925.99444     -1301.3162     -3114.5775      119.57448     -2995.003       495.41937    
     21200   924.42317      300.78227     -3115.3477      119.37158     -2995.9761      494.67491    
     21300   892.83637      3327.7224     -3110.6157      115.29275     -2995.3229      493.92895    
     21400   933.43498      318.02958     -3112.687       120.53529     -2992.1517      493.31081    
     21500   932.53488     -849.39056     -3107.2742      120.41905     -2986.8552      492.52763    
     21600   957.12607      149.65507     -3103.3995      123.59454     -2979.8049      491.83648    
     21700   961.91896      135.87013     -3105.3393      124.21345     -2981.1259      491.20117    
     21800   946.43        -1460.2791     -3110.7189      122.21334     -2988.5055      490.59481    
     21900   911.49453      1068.1307     -3109.4631      117.70209     -2991.761       490.09263    
     22000   982.2226      -819.40344     -3121.4217      126.83527     -2994.5864      489.47429    
     22100   934.52449     -57.194751     -3121.71        120.67597     -3001.034       489.15066    
     22200   927.99185     -530.32958     -3121.9986      119.83241     -3002.1661      488.40458    
     22300   955.08244     -410.6267      -3124.4477      123.33064     -3001.1171      487.83309    
     22400   936.13683      1114.5491     -3121.0001      120.88418     -3000.1159      487.24781    
     22500   958.49732     -2040.8787     -3127.7964      123.77161     -3004.0248      486.44221    
     22600   903.94834     -159.59115     -3124.3289      116.72765     -3007.6012      485.6721     
     22700   961.51506      920.39074     -3128.3293      124.16129     -3004.168       485.00323    
     22800   916.53035      1955.7575     -3121.4435      118.35238     -3003.0911      484.38676    
     22900   914.70816     -1369.3086     -3121.9747      118.11707     -3003.8577      483.67703    
     23000   964.27193     -2893.3854     -3123.1481      124.51729     -2998.6308      483.04684    
     23100   956.77869      460.00873     -3118.0705      123.54968     -2994.5208      482.37383    
     23200   968.62851     -319.01094     -3119.6439      125.07986     -2994.5641      481.69775    
     23300   934.48608     -953.55422     -3123.6176      120.67101     -3002.9466      480.97473    
     23400   919.7193       366.66803     -3124.319       118.76417     -3005.5548      480.18556    
     23500   922.85722      1584.6626     -3124.0471      119.16937     -3004.8777      479.43919    
     23600   922.31047      1200.8492     -3122.0181      119.09877     -3002.9193      478.89669    
     23700   948.85271     -1309.3244     -3121.1442      122.52619     -2998.618       478.20489    
     23800   968.02        -506.29869     -3119.8113      125.00128     -2994.81        477.80958    
     23900   956.40461      382.67379     -3117.9792      123.50137     -2994.4778      477.22955    
     24000   917.53123      320.19833     -3118.329       118.48162     -2999.8474      476.69797    
     24100   921.25095     -1807.054      -3122.3764      118.96195     -3003.4144      475.95027    
     24200   929.03139      639.89326     -3122.4469      119.96665     -3002.4803      475.23678    
     24300   941.61748      2532.1558     -3115.6746      121.5919      -2994.0827      474.49522    
     24400   916.73456      651.52336     -3113.1959      118.37874     -2994.8172      473.79905    
     24500   913.29251     -1679.6246     -3114.184       117.93427     -2996.2497      473.04015    
     24600   946.49642     -1486.1113     -3117.3656      122.22192     -2995.1437      472.30422    
     24700   958.14542      2357.8932     -3113.3557      123.72617     -2989.6296      471.82742    
     24800   978.44076      1260.9148     -3116.8131      126.34692     -2990.4662      471.08286    
     24900   955.95191     -3510.6973     -3121.4721      123.44292     -2998.0292      470.30513    
     25000   946.05212     -2468.8139     -3122.2508      122.16455     -3000.0862      469.68986    
     25100   904.89417      4269.269      -3117.0618      116.84979     -3000.2121      469.02928    
