LAMMPS data file via write_data, version 23 Jun 2022, timestep = 0

64 atoms
3 atom types

0 8.3 xlo xhi
0 8.3 ylo yhi
0 8.3 zlo zhi

Masses

1 58.6934
2 26.9815
3 101.0699

Atoms # atomic

1 2 0 0 2.075 0 0 0
2 2 0 2.075 0 0 0 0
3 2 2.075 0 0 0 0 0
4 1 0 0 0 0 0 0
5 2 2.075 2.075 2.075 0 0 0
6 1 0 2.075 2.075 0 0 0
7 2 4.15 0 2.075 0 0 0
8 1 2.075 0 2.075 0 0 0
9 2 4.15 2.075 0 0 0 0
10 1 2.075 2.075 0 0 0 0
11 2 6.2250000000000005 0 0 0 0 0
12 1 4.15 0 0 0 0 0
13 2 6.2250000000000005 2.075 2.075 0 0 0
14 1 4.15 2.075 2.075 0 0 0
15 1 6.2250000000000005 0 2.075 0 0 0
16 1 6.2250000000000005 2.075 0 0 0 0
17 2 0 0 6.2250000000000005 0 0 0
18 2 0 2.075 4.15 0 0 0
19 2 2.075 0 4.15 0 0 0
20 1 0 0 4.15 0 0 0
21 2 2.075 2.075 6.2250000000000005 0 0 0
22 1 0 2.075 6.2250000000000005 0 0 0
23 2 4.15 0 6.2250000000000005 0 0 0
24 1 2.075 0 6.2250000000000005 0 0 0
25 2 4.15 2.075 4.15 0 0 0
26 1 2.075 2.075 4.15 0 0 0
27 2 6.2250000000000005 0 4.15 0 0 0
28 1 4.15 0 4.15 0 0 0
29 2 6.2250000000000005 2.075 6.2250000000000005 0 0 0
30 1 4.15 2.075 6.2250000000000005 0 0 0
31 1 6.2250000000000005 0 6.2250000000000005 0 0 0
32 1 6.2250000000000005 2.075 4.15 0 0 0
33 2 0 4.15 2.075 0 0 0
34 2 0 6.2250000000000005 0 0 0 0
35 2 2.075 4.15 0 0 0 0
36 1 0 4.15 0 0 0 0
37 2 2.075 6.2250000000000005 2.075 0 0 0
38 1 0 6.2250000000000005 2.075 0 0 0
39 2 4.15 4.15 2.075 0 0 0
40 1 2.075 4.15 2.075 0 0 0
41 2 4.15 6.2250000000000005 0 0 0 0
42 1 2.075 6.2250000000000005 0 0 0 0
43 2 6.2250000000000005 4.15 0 0 0 0
44 1 4.15 4.15 0 0 0 0
45 2 6.2250000000000005 6.2250000000000005 2.075 0 0 0
46 1 4.15 6.2250000000000005 2.075 0 0 0
47 1 6.2250000000000005 4.15 2.075 0 0 0
48 1 6.2250000000000005 6.2250000000000005 0 0 0 0
49 2 0 4.15 6.2250000000000005 0 0 0
50 2 0 6.2250000000000005 4.15 0 0 0
51 2 2.075 4.15 4.15 0 0 0
52 1 0 4.15 4.15 0 0 0
53 2 2.075 6.2250000000000005 6.2250000000000005 0 0 0
54 1 0 6.2250000000000005 6.2250000000000005 0 0 0
55 2 4.15 4.15 6.2250000000000005 0 0 0
56 1 2.075 4.15 6.2250000000000005 0 0 0
57 2 4.15 6.2250000000000005 4.15 0 0 0
58 1 2.075 6.2250000000000005 4.15 0 0 0
59 2 6.2250000000000005 4.15 4.15 0 0 0
60 1 4.15 4.15 4.15 0 0 0
61 2 6.2250000000000005 6.2250000000000005 6.2250000000000005 0 0 0
62 1 4.15 6.2250000000000005 6.2250000000000005 0 0 0
63 1 6.2250000000000005 4.15 6.2250000000000005 0 0 0
64 1 6.2250000000000005 6.2250000000000005 4.15 0 0 0

Velocities

1 0 0 0
2 0 0 0
3 0 0 0
4 0 0 0
5 0 0 0
6 0 0 0
7 0 0 0
8 0 0 0
9 0 0 0
10 0 0 0
11 0 0 0
12 0 0 0
13 0 0 0
14 0 0 0
15 0 0 0
16 0 0 0
17 0 0 0
18 0 0 0
19 0 0 0
20 0 0 0
21 0 0 0
22 0 0 0
23 0 0 0
24 0 0 0
25 0 0 0
26 0 0 0
27 0 0 0
28 0 0 0
29 0 0 0
30 0 0 0
31 0 0 0
32 0 0 0
33 0 0 0
34 0 0 0
35 0 0 0
36 0 0 0
37 0 0 0
38 0 0 0
39 0 0 0
40 0 0 0
41 0 0 0
42 0 0 0
43 0 0 0
44 0 0 0
45 0 0 0
46 0 0 0
47 0 0 0
48 0 0 0
49 0 0 0
50 0 0 0
51 0 0 0
52 0 0 0
53 0 0 0
54 0 0 0
55 0 0 0
56 0 0 0
57 0 0 0
58 0 0 0
59 0 0 0
60 0 0 0
61 0 0 0
62 0 0 0
63 0 0 0
64 0 0 0
