LAMMPS data file via write_data, version 23 Jun 2022, timestep = 90

54 atoms
3 atom types

-0.038116832143327395 8.7981168321434 xlo xhi
-0.038116832143327346 8.7981168321434 ylo yhi
-0.03811683214332735 8.7981168321434 zlo zhi

Masses

1 58.6934
2 26.9815
3 101.0699

Atoms # atomic

1 3 -0.038116832143327305 -0.038116832143327256 -0.03811683214332726 0 0 0
2 3 2.907294389285582 -0.038116832143327256 -0.03811683214332726 0 0 0
3 3 5.8527056107144935 -0.03811683214332724 -0.03811683214332725 0 0 0
4 3 -0.03811683214332731 2.907294389285583 -0.03811683214332726 0 0 0
5 3 2.907294389285582 2.907294389285583 -0.03811683214332726 0 0 0
6 3 5.8527056107144935 2.907294389285583 -0.03811683214332727 0 0 0
7 3 -0.0381168321433273 -0.03811683214332725 2.907294389285583 0 0 0
8 3 2.907294389285582 -0.03811683214332725 2.907294389285583 0 0 0
9 3 5.8527056107144935 -0.038116832143327256 2.907294389285583 0 0 0
10 3 -0.0381168321433273 2.907294389285583 2.907294389285583 0 0 0
11 3 2.907294389285582 2.907294389285583 2.907294389285583 0 0 0
12 3 5.8527056107144935 2.907294389285583 2.907294389285583 0 0 0
28 1 1.4345887785711278 1.4345887785711278 1.4345887785711278 0 0 0
29 1 4.380000000000035 1.4345887785711278 1.4345887785711278 0 0 0
30 1 7.3254112214289515 1.4345887785711278 1.4345887785711278 0 0 0
37 1 1.4345887785711278 4.380000000000035 1.4345887785711278 0 0 0
38 1 4.380000000000035 4.380000000000035 1.4345887785711278 0 0 0
39 1 7.3254112214289515 4.380000000000035 1.4345887785711278 0 0 0
31 1 1.4345887785711278 1.4345887785711278 4.380000000000035 0 0 0
32 1 4.380000000000035 1.4345887785711278 4.380000000000035 0 0 0
33 1 7.3254112214289515 1.4345887785711278 4.380000000000035 0 0 0
43 1 1.4345887785711278 4.380000000000035 4.380000000000035 0 0 0
45 1 7.3254112214289515 4.380000000000035 4.380000000000035 0 0 0
44 1 4.380000000000035 4.380000000000035 4.380000000000035 0 0 0
13 3 -0.03811683214332729 -0.03811683214332724 5.8527056107144935 0 0 0
14 3 2.907294389285582 -0.03811683214332724 5.8527056107144935 0 0 0
15 3 5.8527056107144935 -0.038116832143327256 5.8527056107144935 0 0 0
16 3 -0.03811683214332731 2.907294389285583 5.8527056107144935 0 0 0
17 3 2.907294389285582 2.907294389285583 5.8527056107144935 0 0 0
18 3 5.8527056107144935 2.907294389285583 5.8527056107144935 0 0 0
50 1 4.380000000000035 4.380000000000035 7.3254112214289515 0 0 0
51 1 7.3254112214289515 4.380000000000035 7.3254112214289515 0 0 0
49 1 1.4345887785711278 4.380000000000035 7.3254112214289515 0 0 0
34 1 1.4345887785711278 1.4345887785711278 7.3254112214289515 0 0 0
35 1 4.380000000000035 1.4345887785711278 7.3254112214289515 0 0 0
36 1 7.3254112214289515 1.4345887785711278 7.3254112214289515 0 0 0
19 3 -0.03811683214332729 5.8527056107144935 -0.03811683214332725 0 0 0
20 3 2.907294389285582 5.8527056107144935 -0.038116832143327256 0 0 0
21 3 5.8527056107144935 5.8527056107144935 -0.03811683214332726 0 0 0
22 3 -0.038116832143327305 5.8527056107144935 2.907294389285583 0 0 0
23 3 2.907294389285582 5.8527056107144935 2.907294389285583 0 0 0
24 3 5.8527056107144935 5.8527056107144935 2.907294389285583 0 0 0
42 1 7.3254112214289515 7.3254112214289515 1.4345887785711278 0 0 0
41 1 4.380000000000035 7.3254112214289515 1.4345887785711278 0 0 0
40 1 1.4345887785711278 7.3254112214289515 1.4345887785711278 0 0 0
46 1 1.4345887785711278 7.3254112214289515 4.380000000000035 0 0 0
48 1 7.3254112214289515 7.3254112214289515 4.380000000000035 0 0 0
47 1 4.380000000000035 7.3254112214289515 4.380000000000035 0 0 0
25 3 -0.038116832143327305 5.8527056107144935 5.8527056107144935 0 0 0
26 3 2.907294389285582 5.8527056107144935 5.8527056107144935 0 0 0
27 3 5.8527056107144935 5.8527056107144935 5.8527056107144935 0 0 0
54 1 7.3254112214289515 7.3254112214289515 7.3254112214289515 0 0 0
53 1 4.380000000000035 7.3254112214289515 7.3254112214289515 0 0 0
52 1 1.4345887785711278 7.3254112214289515 7.3254112214289515 0 0 0

Velocities

1 0 0 0
2 0 0 0
3 0 0 0
4 0 0 0
5 0 0 0
6 0 0 0
7 0 0 0
8 0 0 0
9 0 0 0
10 0 0 0
11 0 0 0
12 0 0 0
28 0 0 0
29 0 0 0
30 0 0 0
37 0 0 0
38 0 0 0
39 0 0 0
31 0 0 0
32 0 0 0
33 0 0 0
43 0 0 0
45 0 0 0
44 0 0 0
13 0 0 0
14 0 0 0
15 0 0 0
16 0 0 0
17 0 0 0
18 0 0 0
50 0 0 0
51 0 0 0
49 0 0 0
34 0 0 0
35 0 0 0
36 0 0 0
19 0 0 0
20 0 0 0
21 0 0 0
22 0 0 0
23 0 0 0
24 0 0 0
42 0 0 0
41 0 0 0
40 0 0 0
46 0 0 0
48 0 0 0
47 0 0 0
25 0 0 0
26 0 0 0
27 0 0 0
54 0 0 0
53 0 0 0
52 0 0 0
