ITEM: TIMESTEP
2000
ITEM: NUMBER OF ATOMS
4000
ITEM: BOX BOUNDS pp pp pp
4.3498405862735569e-07 4.0500001687342440e+01
4.3498405862735569e-07 4.0500001687342440e+01
4.3498405862735569e-07 4.0500001687342440e+01
ITEM: ATOMS id type x y z c_eng_per_atom c_ke_per_atom
1 2 4.34984e-07 4.34984e-07 4.34984e-07 -3.36 0.0445738
2 2 2.025 2.025 4.34984e-07 -3.36 0.0182706
3 2 2.025 4.34984e-07 2.025 -3.36 0.00835646
4 2 4.34984e-07 2.025 2.025 -3.36 0.00666471
5 2 4.05 4.34984e-07 4.34984e-07 -3.36 0.0120749
8 2 4.05 2.025 2.025 -3.36 0.0432681
41 2 4.34984e-07 4.05 4.34984e-07 -3.36 0.0370043
43 2 2.025 4.05 2.025 -3.36 0.0164067
45 2 4.05 4.05 4.34984e-07 -3.36 0.0132839
201 2 4.34984e-07 4.34984e-07 4.05 -3.36 0.0179543
202 2 2.025 2.025 4.05 -3.36 0.0377729
205 2 4.05 4.34984e-07 4.05 -3.36 0.0414342
241 2 4.34984e-07 4.05 4.05 -3.36 0.0561772
245 2 4.05 4.05 4.05 -3.36 0.0169853
6 2 6.075 2.025 4.34984e-07 -3.36 0.0529329
7 2 6.075 4.34984e-07 2.025 -3.36 0.0140446
9 2 8.1 4.34984e-07 4.34984e-07 -3.36 0.0519787
12 2 8.1 2.025 2.025 -3.36 0.0254343
47 2 6.075 4.05 2.025 -3.36 0.128631
49 2 8.1 4.05 4.34984e-07 -3.36 0.0177481
206 2 6.075 2.025 4.05 -3.36 0.0128076
209 2 8.1 4.34984e-07 4.05 -3.36 0.0364886
249 2 8.1 4.05 4.05 -3.36 0.0535001
10 2 10.125 2.025 4.34984e-07 -3.36 0.0809982
11 2 10.125 4.34984e-07 2.025 -3.36 0.0808425
51 2 10.125 4.05 2.025 -3.36 0.0269094
13 2 12.15 4.34984e-07 4.34984e-07 -3.36 0.00933723
14 2 14.175 2.025 4.34984e-07 -3.36 0.0143354
15 2 14.175 4.34984e-07 2.025 -3.36 0.0791581
16 2 12.15 2.025 2.025 -3.36 0.0187729
53 2 12.15 4.05 4.34984e-07 -3.36 0.024047
55 2 14.175 4.05 2.025 -3.36 0.0354507
210 2 10.125 2.025 4.05 -3.36 0.0437816
213 2 12.15 4.34984e-07 4.05 -3.36 0.0166809
214 2 14.175 2.025 4.05 -3.36 0.063505
253 2 12.15 4.05 4.05 -3.36 0.00300951
17 2 16.2 4.34984e-07 4.34984e-07 -3.36 0.0216212
18 2 18.225 2.025 4.34984e-07 -3.36 0.0362532
19 2 18.225 4.34984e-07 2.025 -3.36 0.0742949
20 2 16.2 2.025 2.025 -3.36 0.0609076
57 2 16.2 4.05 4.34984e-07 -3.36 0.0595603
59 2 18.225 4.05 2.025 -3.36 0.0391578
217 2 16.2 4.34984e-07 4.05 -3.36 0.047391
218 2 18.225 2.025 4.05 -3.36 0.043132
257 2 16.2 4.05 4.05 -3.36 0.0236801
21 2 20.25 4.34984e-07 4.34984e-07 -3.36 0.0240472
22 2 22.275 2.025 4.34984e-07 -3.36 0.0642296
23 2 22.275 4.34984e-07 2.025 -3.36 0.0451543
24 2 20.25 2.025 2.025 -3.36 0.0393916
25 2 24.3 4.34984e-07 4.34984e-07 -3.36 0.00791215
28 2 24.3 2.025 2.025 -3.36 0.0142769
61 2 20.25 4.05 4.34984e-07 -3.36 0.0607599
63 2 22.275 4.05 2.025 -3.36 0.0246086
65 2 24.3 4.05 4.34984e-07 -3.36 0.016
221 2 20.25 4.34984e-07 4.05 -3.36 0.0949522
222 2 22.275 2.025 4.05 -3.36 0.0135832
225 2 24.3 4.34984e-07 4.05 -3.36 0.027779
261 2 20.25 4.05 4.05 -3.36 0.00386262
265 2 24.3 4.05 4.05 -3.36 0.0298366
26 2 26.325 2.025 4.34984e-07 -3.36 0.0660388
27 2 26.325 4.34984e-07 2.025 -3.36 0.00665781
29 2 28.35 4.34984e-07 4.34984e-07 -3.36 0.022487
32 2 28.35 2.025 2.025 -3.36 0.0475743
67 2 26.325 4.05 2.025 -3.36 0.0213107
69 2 28.35 4.05 4.34984e-07 -3.36 0.0624785
226 2 26.325 2.025 4.05 -3.36 0.0224883
229 2 28.35 4.34984e-07 4.05 -3.36 0.0342017
269 2 28.35 4.05 4.05 -3.36 0.0153342
30 2 30.375 2.025 4.34984e-07 -3.36 0.0552557
31 2 30.375 4.34984e-07 2.025 -3.36 0.00862419
33 2 32.4 4.34984e-07 4.34984e-07 -3.36 0.00934319
34 2 34.425 2.025 4.34984e-07 -3.36 0.0154359
35 2 34.425 4.34984e-07 2.025 -3.36 0.0297603
36 2 32.4 2.025 2.025 -3.36 0.0304236
71 2 30.375 4.05 2.025 -3.36 0.0386888
73 2 32.4 4.05 4.34984e-07 -3.36 0.0601525
75 2 34.425 4.05 2.025 -3.36 0.0857328
230 2 30.375 2.025 4.05 -3.36 0.0537653
233 2 32.4 4.34984e-07 4.05 -3.36 0.008662
234 2 34.425 2.025 4.05 -3.36 0.0154983
273 2 32.4 4.05 4.05 -3.36 0.0724121
37 2 36.45 4.34984e-07 4.34984e-07 -3.36 0.00726412
38 2 38.475 2.025 4.34984e-07 -3.36 0.025416
39 2 38.475 4.34984e-07 2.025 -3.36 0.0870642
40 2 36.45 2.025 2.025 -3.36 0.012434
77 2 36.45 4.05 4.34984e-07 -3.36 0.0395728
79 2 38.475 4.05 2.025 -3.36 0.0592165
237 2 36.45 4.34984e-07 4.05 -3.36 0.0296104
238 2 38.475 2.025 4.05 -3.36 0.0420483
277 2 36.45 4.05 4.05 -3.36 0.0330526
42 2 2.025 6.075 4.34984e-07 -3.36 0.0767119
44 2 4.34984e-07 6.075 2.025 -3.36 0.0756849
48 2 4.05 6.075 2.025 -3.36 0.0604442
81 2 4.34984e-07 8.1 4.34984e-07 -3.36 0.0339302
83 2 2.025 8.1 2.025 -3.36 0.00502007
85 2 4.05 8.1 4.34984e-07 -3.36 0.0836518
242 2 2.025 6.075 4.05 -3.36 0.030986
281 2 4.34984e-07 8.1 4.05 -3.36 0.0353556
285 2 4.05 8.1 4.05 -3.36 0.00933277
46 2 6.075 6.075 4.34984e-07 -3.36 0.0113451
52 2 8.1 6.075 2.025 -3.36 0.0364934
87 2 6.075 8.1 2.025 -3.36 0.0512702
89 2 8.1 8.1 4.34984e-07 -3.36 0.00370472
246 2 6.075 6.075 4.05 -3.36 0.0193999
289 2 8.1 8.1 4.05 -3.36 0.00813433
91 2 10.125 8.1 2.025 -3.36 0.0735023
50 2 10.125 6.075 4.34984e-07 -3.36 0.0139981
54 2 14.175 6.075 4.34984e-07 -3.36 0.0546373
56 2 12.15 6.075 2.025 -3.36 0.015359
93 2 12.15 8.1 4.34984e-07 -3.36 0.0048541
95 2 14.175 8.1 2.025 -3.36 0.0208727
250 2 10.125 6.075 4.05 -3.36 0.048541
254 2 14.175 6.075 4.05 -3.36 0.0266355
293 2 12.15 8.1 4.05 -3.36 0.0230119
58 2 18.225 6.075 4.34984e-07 -3.36 0.016803
60 2 16.2 6.075 2.025 -3.36 0.0133645
97 2 16.2 8.1 4.34984e-07 -3.36 0.0278729
99 2 18.225 8.1 2.025 -3.36 0.0329982
258 2 18.225 6.075 4.05 -3.36 0.0331919
297 2 16.2 8.1 4.05 -3.36 0.065253
62 2 22.275 6.075 4.34984e-07 -3.36 0.0457587
64 2 20.25 6.075 2.025 -3.36 0.00327164
68 2 24.3 6.075 2.025 -3.36 0.0687382
101 2 20.25 8.1 4.34984e-07 -3.36 0.0324703
103 2 22.275 8.1 2.025 -3.36 0.0473649
105 2 24.3 8.1 4.34984e-07 -3.36 0.0553435
262 2 22.275 6.075 4.05 -3.36 0.0364899
301 2 20.25 8.1 4.05 -3.36 0.0630521
305 2 24.3 8.1 4.05 -3.36 0.0262606
66 2 26.325 6.075 4.34984e-07 -3.36 0.0155802
72 2 28.35 6.075 2.025 -3.36 0.0427193
107 2 26.325 8.1 2.025 -3.36 0.0563046
109 2 28.35 8.1 4.34984e-07 -3.36 0.0708209
266 2 26.325 6.075 4.05 -3.36 0.0332794
309 2 28.35 8.1 4.05 -3.36 0.024049
112 2 28.35 10.125 2.025 -3.36 0.00788148
70 2 30.375 6.075 4.34984e-07 -3.36 0.0818554
74 2 34.425 6.075 4.34984e-07 -3.36 0.019438
76 2 32.4 6.075 2.025 -3.36 0.0100604
111 2 30.375 8.1 2.025 -3.36 0.0485829
113 2 32.4 8.1 4.34984e-07 -3.36 0.0294173
115 2 34.425 8.1 2.025 -3.36 0.0366249
270 2 30.375 6.075 4.05 -3.36 0.0827959
274 2 34.425 6.075 4.05 -3.36 0.0129868
313 2 32.4 8.1 4.05 -3.36 0.0102798
78 2 38.475 6.075 4.34984e-07 -3.36 0.0707735
80 2 36.45 6.075 2.025 -3.36 0.0425187
117 2 36.45 8.1 4.34984e-07 -3.36 0.00128365
119 2 38.475 8.1 2.025 -3.36 0.0146244
278 2 38.475 6.075 4.05 -3.36 0.000429848
317 2 36.45 8.1 4.05 -3.36 0.0548925
82 2 2.025 10.125 4.34984e-07 -3.36 0.0624233
84 2 4.34984e-07 10.125 2.025 -3.36 0.0136529
88 2 4.05 10.125 2.025 -3.36 0.0385951
121 2 4.34984e-07 12.15 4.34984e-07 -3.36 0.0130103
122 2 2.025 14.175 4.34984e-07 -3.36 0.0208029
123 2 2.025 12.15 2.025 -3.36 0.0685586
124 2 4.34984e-07 14.175 2.025 -3.36 0.0407795
125 2 4.05 12.15 4.34984e-07 -3.36 0.0146408
128 2 4.05 14.175 2.025 -3.36 0.0227797
282 2 2.025 10.125 4.05 -3.36 0.0131558
321 2 4.34984e-07 12.15 4.05 -3.36 0.010538
322 2 2.025 14.175 4.05 -3.36 0.0296679
325 2 4.05 12.15 4.05 -3.36 0.0495083
86 2 6.075 10.125 4.34984e-07 -3.36 0.0786463
92 2 8.1 10.125 2.025 -3.36 0.0525718
126 2 6.075 14.175 4.34984e-07 -3.36 0.04363
127 2 6.075 12.15 2.025 -3.36 0.0174362
129 2 8.1 12.15 4.34984e-07 -3.36 0.00480959
132 2 8.1 14.175 2.025 -3.36 0.0645696
286 2 6.075 10.125 4.05 -3.36 0.111374
326 2 6.075 14.175 4.05 -3.36 7.31139e-05
329 2 8.1 12.15 4.05 -3.36 0.0262385
90 2 10.125 10.125 4.34984e-07 -3.36 0.0692947
94 2 14.175 10.125 4.34984e-07 -3.36 0.0436266
96 2 12.15 10.125 2.025 -3.36 0.0558021
130 2 10.125 14.175 4.34984e-07 -3.36 0.128202
131 2 10.125 12.15 2.025 -3.36 0.0654672
133 2 12.15 12.15 4.34984e-07 -3.36 0.0110787
134 2 14.175 14.175 4.34984e-07 -3.36 0.11994
135 2 14.175 12.15 2.025 -3.36 0.0252178
136 2 12.15 14.175 2.025 -3.36 0.0263433
290 2 10.125 10.125 4.05 -3.36 0.032719
294 2 14.175 10.125 4.05 -3.36 0.0504678
330 2 10.125 14.175 4.05 -3.36 0.00739644
333 2 12.15 12.15 4.05 -3.36 0.0362531
334 2 14.175 14.175 4.05 -3.36 0.0854066
98 2 18.225 10.125 4.34984e-07 -3.36 0.0845328
100 2 16.2 10.125 2.025 -3.36 0.0560567
137 2 16.2 12.15 4.34984e-07 -3.36 0.0139386
138 2 18.225 14.175 4.34984e-07 -3.36 0.00428095
139 2 18.225 12.15 2.025 -3.36 0.0126552
140 2 16.2 14.175 2.025 -3.36 0.0259447
298 2 18.225 10.125 4.05 -3.36 0.0171074
337 2 16.2 12.15 4.05 -3.36 0.0369295
338 2 18.225 14.175 4.05 -3.36 0.046117
102 2 22.275 10.125 4.34984e-07 -3.36 0.0466492
104 2 20.25 10.125 2.025 -3.36 0.00834007
108 2 24.3 10.125 2.025 -3.36 0.00783922
141 2 20.25 12.15 4.34984e-07 -3.36 0.0134011
142 2 22.275 14.175 4.34984e-07 -3.36 0.00638979
143 2 22.275 12.15 2.025 -3.36 0.0403722
144 2 20.25 14.175 2.025 -3.36 0.0709329
145 2 24.3 12.15 4.34984e-07 -3.36 0.00294671
148 2 24.3 14.175 2.025 -3.36 0.00871882
302 2 22.275 10.125 4.05 -3.36 0.0761507
341 2 20.25 12.15 4.05 -3.36 0.080357
342 2 22.275 14.175 4.05 -3.36 0.0213498
345 2 24.3 12.15 4.05 -3.36 0.0463156
106 2 26.325 10.125 4.34984e-07 -3.36 0.0412964
146 2 26.325 14.175 4.34984e-07 -3.36 0.0434494
147 2 26.325 12.15 2.025 -3.36 0.0232996
149 2 28.35 12.15 4.34984e-07 -3.36 0.0527071
152 2 28.35 14.175 2.025 -3.36 0.0338062
306 2 26.325 10.125 4.05 -3.36 0.0154888
346 2 26.325 14.175 4.05 -3.36 0.0254806
349 2 28.35 12.15 4.05 -3.36 0.0128894
110 2 30.375 10.125 4.34984e-07 -3.36 0.0177112
114 2 34.425 10.125 4.34984e-07 -3.36 0.0405187
116 2 32.4 10.125 2.025 -3.36 0.0447223
150 2 30.375 14.175 4.34984e-07 -3.36 0.0332344
151 2 30.375 12.15 2.025 -3.36 0.017626
153 2 32.4 12.15 4.34984e-07 -3.36 0.0628029
154 2 34.425 14.175 4.34984e-07 -3.36 0.00563275
155 2 34.425 12.15 2.025 -3.36 0.0389107
156 2 32.4 14.175 2.025 -3.36 0.0716865
310 2 30.375 10.125 4.05 -3.36 0.0463828
314 2 34.425 10.125 4.05 -3.36 0.00404577
350 2 30.375 14.175 4.05 -3.36 0.0416765
353 2 32.4 12.15 4.05 -3.36 0.03576
354 2 34.425 14.175 4.05 -3.36 0.0583568
118 2 38.475 10.125 4.34984e-07 -3.36 0.00283261
120 2 36.45 10.125 2.025 -3.36 0.0387441
157 2 36.45 12.15 4.34984e-07 -3.36 0.062543
158 2 38.475 14.175 4.34984e-07 -3.36 0.034642
159 2 38.475 12.15 2.025 -3.36 0.00495297
160 2 36.45 14.175 2.025 -3.36 0.00824224
318 2 38.475 10.125 4.05 -3.36 0.0082045
357 2 36.45 12.15 4.05 -3.36 0.0701564
358 2 38.475 14.175 4.05 -3.36 0.0416469
161 2 4.34984e-07 16.2 4.34984e-07 -3.36 0.0365802
162 2 2.025 18.225 4.34984e-07 -3.36 0.0547691
163 2 2.025 16.2 2.025 -3.36 0.000263238
164 2 4.34984e-07 18.225 2.025 -3.36 0.184324
165 2 4.05 16.2 4.34984e-07 -3.36 0.00924088
168 2 4.05 18.225 2.025 -3.36 0.0276445
361 2 4.34984e-07 16.2 4.05 -3.36 0.0315173
362 2 2.025 18.225 4.05 -3.36 0.00967791
365 2 4.05 16.2 4.05 -3.36 0.0116061
166 2 6.075 18.225 4.34984e-07 -3.36 0.0777909
167 2 6.075 16.2 2.025 -3.36 0.0321899
169 2 8.1 16.2 4.34984e-07 -3.36 0.0654249
172 2 8.1 18.225 2.025 -3.36 0.100364
366 2 6.075 18.225 4.05 -3.36 0.0396194
369 2 8.1 16.2 4.05 -3.36 0.0445983
170 2 10.125 18.225 4.34984e-07 -3.36 0.040567
171 2 10.125 16.2 2.025 -3.36 0.0168866
173 2 12.15 16.2 4.34984e-07 -3.36 0.0309544
174 2 14.175 18.225 4.34984e-07 -3.36 0.0215486
175 2 14.175 16.2 2.025 -3.36 0.0876394
176 2 12.15 18.225 2.025 -3.36 0.0827796
370 2 10.125 18.225 4.05 -3.36 0.0476536
373 2 12.15 16.2 4.05 -3.36 0.0316327
374 2 14.175 18.225 4.05 -3.36 0.0154906
177 2 16.2 16.2 4.34984e-07 -3.36 0.0209796
178 2 18.225 18.225 4.34984e-07 -3.36 0.0140273
179 2 18.225 16.2 2.025 -3.36 0.00871952
180 2 16.2 18.225 2.025 -3.36 0.0620687
377 2 16.2 16.2 4.05 -3.36 0.0886596
378 2 18.225 18.225 4.05 -3.36 0.0133935
181 2 20.25 16.2 4.34984e-07 -3.36 0.0293698
182 2 22.275 18.225 4.34984e-07 -3.36 0.00497828
183 2 22.275 16.2 2.025 -3.36 0.0187845
184 2 20.25 18.225 2.025 -3.36 0.0450102
185 2 24.3 16.2 4.34984e-07 -3.36 0.016191
188 2 24.3 18.225 2.025 -3.36 0.032441
381 2 20.25 16.2 4.05 -3.36 0.0585841
382 2 22.275 18.225 4.05 -3.36 0.0296546
385 2 24.3 16.2 4.05 -3.36 0.0947934
186 2 26.325 18.225 4.34984e-07 -3.36 0.0133714
187 2 26.325 16.2 2.025 -3.36 0.0440796
189 2 28.35 16.2 4.34984e-07 -3.36 0.0238093
192 2 28.35 18.225 2.025 -3.36 0.0204861
386 2 26.325 18.225 4.05 -3.36 0.0196918
389 2 28.35 16.2 4.05 -3.36 0.0308128
190 2 30.375 18.225 4.34984e-07 -3.36 0.0174463
191 2 30.375 16.2 2.025 -3.36 0.0185638
193 2 32.4 16.2 4.34984e-07 -3.36 0.00813477
194 2 34.425 18.225 4.34984e-07 -3.36 0.0399952
195 2 34.425 16.2 2.025 -3.36 0.0534975
196 2 32.4 18.225 2.025 -3.36 0.0213429
390 2 30.375 18.225 4.05 -3.36 0.0180122
393 2 32.4 16.2 4.05 -3.36 0.0164817
394 2 34.425 18.225 4.05 -3.36 0.0160248
197 2 36.45 16.2 4.34984e-07 -3.36 0.0210519
198 2 38.475 18.225 4.34984e-07 -3.36 0.0273289
199 2 38.475 16.2 2.025 -3.36 0.0102068
200 2 36.45 18.225 2.025 -3.36 0.00714517
397 2 36.45 16.2 4.05 -3.36 0.00101606
398 2 38.475 18.225 4.05 -3.36 0.0188353
203 2 2.025 4.34984e-07 6.075 -3.36 0.068611
204 2 4.34984e-07 2.025 6.075 -3.36 0.0867318
208 2 4.05 2.025 6.075 -3.36 0.018809
243 2 2.025 4.05 6.075 -3.36 0.0192345
401 2 4.34984e-07 4.34984e-07 8.1 -3.36 0.00693823
402 2 2.025 2.025 8.1 -3.36 0.0155698
405 2 4.05 4.34984e-07 8.1 -3.36 0.0497311
441 2 4.34984e-07 4.05 8.1 -3.36 0.073228
445 2 4.05 4.05 8.1 -3.36 0.000682513
443 2 2.025 4.05 10.125 -3.36 0.0277243
207 2 6.075 4.34984e-07 6.075 -3.36 0.0484527
212 2 8.1 2.025 6.075 -3.36 0.0668087
247 2 6.075 4.05 6.075 -3.36 0.0362958
406 2 6.075 2.025 8.1 -3.36 0.00203691
409 2 8.1 4.34984e-07 8.1 -3.36 0.051402
449 2 8.1 4.05 8.1 -3.36 0.0214424
211 2 10.125 4.34984e-07 6.075 -3.36 0.0454659
215 2 14.175 4.34984e-07 6.075 -3.36 0.0154207
216 2 12.15 2.025 6.075 -3.36 0.00718327
251 2 10.125 4.05 6.075 -3.36 0.0585947
255 2 14.175 4.05 6.075 -3.36 0.0960434
410 2 10.125 2.025 8.1 -3.36 0.0287467
413 2 12.15 4.34984e-07 8.1 -3.36 0.0122853
414 2 14.175 2.025 8.1 -3.36 0.0530129
453 2 12.15 4.05 8.1 -3.36 0.00871808
219 2 18.225 4.34984e-07 6.075 -3.36 0.0176695
220 2 16.2 2.025 6.075 -3.36 0.0190266
259 2 18.225 4.05 6.075 -3.36 0.00671887
417 2 16.2 4.34984e-07 8.1 -3.36 0.0328324
418 2 18.225 2.025 8.1 -3.36 0.0340056
457 2 16.2 4.05 8.1 -3.36 0.0436033
223 2 22.275 4.34984e-07 6.075 -3.36 0.00975149
224 2 20.25 2.025 6.075 -3.36 0.174416
228 2 24.3 2.025 6.075 -3.36 0.0967052
263 2 22.275 4.05 6.075 -3.36 0.177053
421 2 20.25 4.34984e-07 8.1 -3.36 0.00361253
422 2 22.275 2.025 8.1 -3.36 0.0126754
425 2 24.3 4.34984e-07 8.1 -3.36 0.0310697
461 2 20.25 4.05 8.1 -3.36 0.11654
465 2 24.3 4.05 8.1 -3.36 0.0186312
428 2 24.3 2.025 10.125 -3.36 0.0215142
227 2 26.325 4.34984e-07 6.075 -3.36 0.0149221
232 2 28.35 2.025 6.075 -3.36 0.0214734
267 2 26.325 4.05 6.075 -3.36 0.206931
426 2 26.325 2.025 8.1 -3.36 0.00782296
429 2 28.35 4.34984e-07 8.1 -3.36 0.0800691
469 2 28.35 4.05 8.1 -3.36 0.0222781
432 2 28.35 2.025 10.125 -3.36 0.0251146
231 2 30.375 4.34984e-07 6.075 -3.36 0.0340771
235 2 34.425 4.34984e-07 6.075 -3.36 0.0356814
236 2 32.4 2.025 6.075 -3.36 0.0698717
271 2 30.375 4.05 6.075 -3.36 0.0523466
275 2 34.425 4.05 6.075 -3.36 0.00790505
430 2 30.375 2.025 8.1 -3.36 0.0260433
433 2 32.4 4.34984e-07 8.1 -3.36 0.0347394
434 2 34.425 2.025 8.1 -3.36 0.070562
473 2 32.4 4.05 8.1 -3.36 0.0821015
239 2 38.475 4.34984e-07 6.075 -3.36 0.0445611
240 2 36.45 2.025 6.075 -3.36 0.0696214
279 2 38.475 4.05 6.075 -3.36 0.0113812
437 2 36.45 4.34984e-07 8.1 -3.36 0.0958988
438 2 38.475 2.025 8.1 -3.36 0.11693
477 2 36.45 4.05 8.1 -3.36 0.0317398
439 2 38.475 4.34984e-07 10.125 -3.36 0.146297
479 2 38.475 4.05 10.125 -3.36 0.100579
244 2 4.34984e-07 6.075 6.075 -3.36 0.116283
248 2 4.05 6.075 6.075 -3.36 0.0435491
283 2 2.025 8.1 6.075 -3.36 0.00233273
442 2 2.025 6.075 8.1 -3.36 0.0492498
481 2 4.34984e-07 8.1 8.1 -3.36 0.010662
485 2 4.05 8.1 8.1 -3.36 0.0107028
252 2 8.1 6.075 6.075 -3.36 0.0290754
287 2 6.075 8.1 6.075 -3.36 0.0344403
446 2 6.075 6.075 8.1 -3.36 0.0166257
489 2 8.1 8.1 8.1 -3.36 0.00753647
256 2 12.15 6.075 6.075 -3.36 0.0104054
291 2 10.125 8.1 6.075 -3.36 0.0751499
295 2 14.175 8.1 6.075 -3.36 0.0243088
450 2 10.125 6.075 8.1 -3.36 0.0685202
454 2 14.175 6.075 8.1 -3.36 0.0107295
493 2 12.15 8.1 8.1 -3.36 0.0240102
260 2 16.2 6.075 6.075 -3.36 0.0868693
299 2 18.225 8.1 6.075 -3.36 0.0531688
458 2 18.225 6.075 8.1 -3.36 0.0559581
497 2 16.2 8.1 8.1 -3.36 0.0200253
264 2 20.25 6.075 6.075 -3.36 0.0173403
268 2 24.3 6.075 6.075 -3.36 0.00363328
303 2 22.275 8.1 6.075 -3.36 0.0148205
462 2 22.275 6.075 8.1 -3.36 0.0137652
501 2 20.25 8.1 8.1 -3.36 0.0358063
505 2 24.3 8.1 8.1 -3.36 0.0572965
272 2 28.35 6.075 6.075 -3.36 0.0925603
307 2 26.325 8.1 6.075 -3.36 0.00744086
466 2 26.325 6.075 8.1 -3.36 0.0609547
509 2 28.35 8.1 8.1 -3.36 0.0305392
276 2 32.4 6.075 6.075 -3.36 0.0645297
311 2 30.375 8.1 6.075 -3.36 0.0532977
315 2 34.425 8.1 6.075 -3.36 0.10166
470 2 30.375 6.075 8.1 -3.36 0.037849
474 2 34.425 6.075 8.1 -3.36 0.0108213
513 2 32.4 8.1 8.1 -3.36 0.00952062
280 2 36.45 6.075 6.075 -3.36 0.0268362
319 2 38.475 8.1 6.075 -3.36 0.0096072
478 2 38.475 6.075 8.1 -3.36 0.0587774
517 2 36.45 8.1 8.1 -3.36 0.0119712
284 2 4.34984e-07 10.125 6.075 -3.36 0.0301979
288 2 4.05 10.125 6.075 -3.36 0.0601186
323 2 2.025 12.15 6.075 -3.36 0.0015089
324 2 4.34984e-07 14.175 6.075 -3.36 0.0413228
328 2 4.05 14.175 6.075 -3.36 0.0938643
482 2 2.025 10.125 8.1 -3.36 0.0306193
521 2 4.34984e-07 12.15 8.1 -3.36 0.0692291
522 2 2.025 14.175 8.1 -3.36 0.029021
525 2 4.05 12.15 8.1 -3.36 0.0394622
292 2 8.1 10.125 6.075 -3.36 0.047022
327 2 6.075 12.15 6.075 -3.36 0.0262708
332 2 8.1 14.175 6.075 -3.36 0.0723047
486 2 6.075 10.125 8.1 -3.36 0.0568869
526 2 6.075 14.175 8.1 -3.36 0.00586468
529 2 8.1 12.15 8.1 -3.36 0.0161123
296 2 12.15 10.125 6.075 -3.36 0.0163745
331 2 10.125 12.15 6.075 -3.36 0.0103109
335 2 14.175 12.15 6.075 -3.36 0.0101187
336 2 12.15 14.175 6.075 -3.36 0.0592388
490 2 10.125 10.125 8.1 -3.36 0.0804878
494 2 14.175 10.125 8.1 -3.36 0.110143
530 2 10.125 14.175 8.1 -3.36 0.0886744
533 2 12.15 12.15 8.1 -3.36 0.015403
534 2 14.175 14.175 8.1 -3.36 0.0610092
300 2 16.2 10.125 6.075 -3.36 0.0260473
339 2 18.225 12.15 6.075 -3.36 0.00261537
340 2 16.2 14.175 6.075 -3.36 0.0253811
498 2 18.225 10.125 8.1 -3.36 0.0290462
537 2 16.2 12.15 8.1 -3.36 0.0130301
538 2 18.225 14.175 8.1 -3.36 0.052289
304 2 20.25 10.125 6.075 -3.36 0.0374218
308 2 24.3 10.125 6.075 -3.36 0.0399138
343 2 22.275 12.15 6.075 -3.36 0.0161536
344 2 20.25 14.175 6.075 -3.36 0.0345592
348 2 24.3 14.175 6.075 -3.36 0.00532427
502 2 22.275 10.125 8.1 -3.36 0.00972947
541 2 20.25 12.15 8.1 -3.36 0.019265
542 2 22.275 14.175 8.1 -3.36 0.0811975
545 2 24.3 12.15 8.1 -3.36 0.0482229
312 2 28.35 10.125 6.075 -3.36 0.0367193
347 2 26.325 12.15 6.075 -3.36 0.0939472
352 2 28.35 14.175 6.075 -3.36 0.0643154
506 2 26.325 10.125 8.1 -3.36 0.0275927
546 2 26.325 14.175 8.1 -3.36 0.0093734
549 2 28.35 12.15 8.1 -3.36 0.0165453
316 2 32.4 10.125 6.075 -3.36 0.0101783
351 2 30.375 12.15 6.075 -3.36 0.0593149
355 2 34.425 12.15 6.075 -3.36 0.0295413
356 2 32.4 14.175 6.075 -3.36 0.0323309
510 2 30.375 10.125 8.1 -3.36 0.015615
514 2 34.425 10.125 8.1 -3.36 0.0429194
550 2 30.375 14.175 8.1 -3.36 0.0416071
553 2 32.4 12.15 8.1 -3.36 0.0207489
554 2 34.425 14.175 8.1 -3.36 0.0224039
320 2 36.45 10.125 6.075 -3.36 0.0172118
359 2 38.475 12.15 6.075 -3.36 0.0262883
360 2 36.45 14.175 6.075 -3.36 0.0239978
518 2 38.475 10.125 8.1 -3.36 0.0218106
557 2 36.45 12.15 8.1 -3.36 0.0324255
558 2 38.475 14.175 8.1 -3.36 0.0684917
363 2 2.025 16.2 6.075 -3.36 0.0257159
364 2 4.34984e-07 18.225 6.075 -3.36 0.0646833
368 2 4.05 18.225 6.075 -3.36 0.014824
561 2 4.34984e-07 16.2 8.1 -3.36 0.0214836
562 2 2.025 18.225 8.1 -3.36 0.0258013
565 2 4.05 16.2 8.1 -3.36 0.000749479
367 2 6.075 16.2 6.075 -3.36 0.00355267
372 2 8.1 18.225 6.075 -3.36 0.0441454
566 2 6.075 18.225 8.1 -3.36 0.0201365
569 2 8.1 16.2 8.1 -3.36 0.096842
371 2 10.125 16.2 6.075 -3.36 0.00439764
375 2 14.175 16.2 6.075 -3.36 0.0388543
376 2 12.15 18.225 6.075 -3.36 0.0389101
570 2 10.125 18.225 8.1 -3.36 0.0050624
573 2 12.15 16.2 8.1 -3.36 0.0204989
574 2 14.175 18.225 8.1 -3.36 0.0281499
379 2 18.225 16.2 6.075 -3.36 0.0689106
380 2 16.2 18.225 6.075 -3.36 0.0513563
577 2 16.2 16.2 8.1 -3.36 0.0139521
578 2 18.225 18.225 8.1 -3.36 0.087283
383 2 22.275 16.2 6.075 -3.36 0.0990848
384 2 20.25 18.225 6.075 -3.36 0.0279368
388 2 24.3 18.225 6.075 -3.36 0.0117984
581 2 20.25 16.2 8.1 -3.36 0.0052378
582 2 22.275 18.225 8.1 -3.36 0.016442
585 2 24.3 16.2 8.1 -3.36 0.0337115
387 2 26.325 16.2 6.075 -3.36 0.0305366
392 2 28.35 18.225 6.075 -3.36 0.0750093
586 2 26.325 18.225 8.1 -3.36 0.0963189
589 2 28.35 16.2 8.1 -3.36 0.00510411
391 2 30.375 16.2 6.075 -3.36 0.0459194
395 2 34.425 16.2 6.075 -3.36 0.101082
396 2 32.4 18.225 6.075 -3.36 0.0418509
590 2 30.375 18.225 8.1 -3.36 0.0472339
593 2 32.4 16.2 8.1 -3.36 0.00904886
594 2 34.425 18.225 8.1 -3.36 0.0585492
399 2 38.475 16.2 6.075 -3.36 0.0175449
400 2 36.45 18.225 6.075 -3.36 0.0669627
597 2 36.45 16.2 8.1 -3.36 0.00535852
598 2 38.475 18.225 8.1 -3.36 0.0438848
403 2 2.025 4.34984e-07 10.125 -3.36 0.017898
404 2 4.34984e-07 2.025 10.125 -3.36 0.056846
408 2 4.05 2.025 10.125 -3.36 0.0850952
601 2 4.34984e-07 4.34984e-07 12.15 -3.36 0.0263169
602 2 2.025 2.025 12.15 -3.36 0.0702986
603 2 2.025 4.34984e-07 14.175 -3.36 0.0595683
604 2 4.34984e-07 2.025 14.175 -3.36 0.00139554
605 2 4.05 4.34984e-07 12.15 -3.36 0.0673787
608 2 4.05 2.025 14.175 -3.36 0.0209204
641 2 4.34984e-07 4.05 12.15 -3.36 0.0163965
643 2 2.025 4.05 14.175 -3.36 0.00347394
645 2 4.05 4.05 12.15 -3.36 0.0130596
407 2 6.075 4.34984e-07 10.125 -3.36 0.0233753
412 2 8.1 2.025 10.125 -3.36 0.00968697
447 2 6.075 4.05 10.125 -3.36 0.0193827
606 2 6.075 2.025 12.15 -3.36 0.0252079
607 2 6.075 4.34984e-07 14.175 -3.36 0.0311739
609 2 8.1 4.34984e-07 12.15 -3.36 0.0165316
612 2 8.1 2.025 14.175 -3.36 0.0663982
647 2 6.075 4.05 14.175 -3.36 0.0756351
649 2 8.1 4.05 12.15 -3.36 0.00578925
411 2 10.125 4.34984e-07 10.125 -3.36 0.0238739
415 2 14.175 4.34984e-07 10.125 -3.36 0.0418708
416 2 12.15 2.025 10.125 -3.36 0.0585192
451 2 10.125 4.05 10.125 -3.36 0.00697576
455 2 14.175 4.05 10.125 -3.36 0.0292024
610 2 10.125 2.025 12.15 -3.36 0.0145926
611 2 10.125 4.34984e-07 14.175 -3.36 0.0280069
613 2 12.15 4.34984e-07 12.15 -3.36 0.0610572
614 2 14.175 2.025 12.15 -3.36 0.0886613
615 2 14.175 4.34984e-07 14.175 -3.36 0.0122068
616 2 12.15 2.025 14.175 -3.36 0.0323203
651 2 10.125 4.05 14.175 -3.36 0.040633
653 2 12.15 4.05 12.15 -3.36 0.0312451
655 2 14.175 4.05 14.175 -3.36 0.00344451
419 2 18.225 4.34984e-07 10.125 -3.36 0.0394801
420 2 16.2 2.025 10.125 -3.36 0.0251318
459 2 18.225 4.05 10.125 -3.36 0.0392226
617 2 16.2 4.34984e-07 12.15 -3.36 0.0481022
618 2 18.225 2.025 12.15 -3.36 0.0462681
619 2 18.225 4.34984e-07 14.175 -3.36 0.0384959
620 2 16.2 2.025 14.175 -3.36 0.0517238
657 2 16.2 4.05 12.15 -3.36 0.0308855
659 2 18.225 4.05 14.175 -3.36 0.0457651
423 2 22.275 4.34984e-07 10.125 -3.36 0.0278602
424 2 20.25 2.025 10.125 -3.36 0.0258567
463 2 22.275 4.05 10.125 -3.36 0.0142591
621 2 20.25 4.34984e-07 12.15 -3.36 0.154143
622 2 22.275 2.025 12.15 -3.36 0.0344797
623 2 22.275 4.34984e-07 14.175 -3.36 0.0484315
624 2 20.25 2.025 14.175 -3.36 0.0654599
625 2 24.3 4.34984e-07 12.15 -3.36 0.00841659
628 2 24.3 2.025 14.175 -3.36 0.215113
661 2 20.25 4.05 12.15 -3.36 0.0256267
663 2 22.275 4.05 14.175 -3.36 0.0029194
665 2 24.3 4.05 12.15 -3.36 0.0538616
427 2 26.325 4.34984e-07 10.125 -3.36 0.0096208
467 2 26.325 4.05 10.125 -3.36 0.0713427
626 2 26.325 2.025 12.15 -3.36 0.0655223
627 2 26.325 4.34984e-07 14.175 -3.36 0.036552
629 2 28.35 4.34984e-07 12.15 -3.36 0.0126573
632 2 28.35 2.025 14.175 -3.36 0.0174513
667 2 26.325 4.05 14.175 -3.36 0.0898863
669 2 28.35 4.05 12.15 -3.36 0.0726882
431 2 30.375 4.34984e-07 10.125 -3.36 0.0213443
435 2 34.425 4.34984e-07 10.125 -3.36 0.0661685
436 2 32.4 2.025 10.125 -3.36 0.0275337
471 2 30.375 4.05 10.125 -3.36 0.0200909
475 2 34.425 4.05 10.125 -3.36 0.0186348
630 2 30.375 2.025 12.15 -3.36 0.0135685
631 2 30.375 4.34984e-07 14.175 -3.36 0.0799973
633 2 32.4 4.34984e-07 12.15 -3.36 0.15797
634 2 34.425 2.025 12.15 -3.36 0.0671438
635 2 34.425 4.34984e-07 14.175 -3.36 0.0327522
636 2 32.4 2.025 14.175 -3.36 0.0284595
671 2 30.375 4.05 14.175 -3.36 0.018208
673 2 32.4 4.05 12.15 -3.36 0.192281
675 2 34.425 4.05 14.175 -3.36 0.0643319
440 2 36.45 2.025 10.125 -3.36 0.0481336
637 2 36.45 4.34984e-07 12.15 -3.36 0.0378188
638 2 38.475 2.025 12.15 -3.36 0.0223899
639 2 38.475 4.34984e-07 14.175 -3.36 0.0662405
640 2 36.45 2.025 14.175 -3.36 0.00990048
677 2 36.45 4.05 12.15 -3.36 0.0453819
679 2 38.475 4.05 14.175 -3.36 0.0282854
444 2 4.34984e-07 6.075 10.125 -3.36 0.0189747
448 2 4.05 6.075 10.125 -3.36 0.0169053
483 2 2.025 8.1 10.125 -3.36 0.044944
642 2 2.025 6.075 12.15 -3.36 0.0233223
644 2 4.34984e-07 6.075 14.175 -3.36 0.0730448
648 2 4.05 6.075 14.175 -3.36 0.00682121
681 2 4.34984e-07 8.1 12.15 -3.36 0.0170737
683 2 2.025 8.1 14.175 -3.36 0.00573958
685 2 4.05 8.1 12.15 -3.36 0.0182702
452 2 8.1 6.075 10.125 -3.36 0.0599849
487 2 6.075 8.1 10.125 -3.36 0.0556134
646 2 6.075 6.075 12.15 -3.36 0.0562093
652 2 8.1 6.075 14.175 -3.36 0.04381
687 2 6.075 8.1 14.175 -3.36 0.0346147
689 2 8.1 8.1 12.15 -3.36 0.00468844
456 2 12.15 6.075 10.125 -3.36 0.0395134
491 2 10.125 8.1 10.125 -3.36 0.0134603
495 2 14.175 8.1 10.125 -3.36 0.0263157
650 2 10.125 6.075 12.15 -3.36 0.0350768
654 2 14.175 6.075 12.15 -3.36 0.0346182
656 2 12.15 6.075 14.175 -3.36 0.0662018
691 2 10.125 8.1 14.175 -3.36 0.0179733
693 2 12.15 8.1 12.15 -3.36 0.0461671
695 2 14.175 8.1 14.175 -3.36 0.0629518
460 2 16.2 6.075 10.125 -3.36 0.0187694
499 2 18.225 8.1 10.125 -3.36 0.0233439
658 2 18.225 6.075 12.15 -3.36 0.0821617
660 2 16.2 6.075 14.175 -3.36 0.00585971
697 2 16.2 8.1 12.15 -3.36 0.0701649
699 2 18.225 8.1 14.175 -3.36 0.0327992
464 2 20.25 6.075 10.125 -3.36 0.000516158
468 2 24.3 6.075 10.125 -3.36 0.0229779
503 2 22.275 8.1 10.125 -3.36 0.0949185
662 2 22.275 6.075 12.15 -3.36 0.00902228
664 2 20.25 6.075 14.175 -3.36 0.0176133
668 2 24.3 6.075 14.175 -3.36 0.0462819
701 2 20.25 8.1 12.15 -3.36 0.0895567
703 2 22.275 8.1 14.175 -3.36 0.0739215
705 2 24.3 8.1 12.15 -3.36 0.01323
472 2 28.35 6.075 10.125 -3.36 0.0216601
507 2 26.325 8.1 10.125 -3.36 0.0405481
666 2 26.325 6.075 12.15 -3.36 0.0618672
672 2 28.35 6.075 14.175 -3.36 0.017638
707 2 26.325 8.1 14.175 -3.36 0.0380327
709 2 28.35 8.1 12.15 -3.36 0.0456957
476 2 32.4 6.075 10.125 -3.36 0.032476
511 2 30.375 8.1 10.125 -3.36 0.130407
515 2 34.425 8.1 10.125 -3.36 0.0606987
670 2 30.375 6.075 12.15 -3.36 0.011825
674 2 34.425 6.075 12.15 -3.36 0.0439323
676 2 32.4 6.075 14.175 -3.36 0.0314384
711 2 30.375 8.1 14.175 -3.36 0.000207373
713 2 32.4 8.1 12.15 -3.36 0.00648382
715 2 34.425 8.1 14.175 -3.36 0.0215768
480 2 36.45 6.075 10.125 -3.36 0.00246061
519 2 38.475 8.1 10.125 -3.36 0.0195092
678 2 38.475 6.075 12.15 -3.36 0.031586
680 2 36.45 6.075 14.175 -3.36 0.0192597
717 2 36.45 8.1 12.15 -3.36 0.0362441
719 2 38.475 8.1 14.175 -3.36 0.0393372
484 2 4.34984e-07 10.125 10.125 -3.36 0.0302109
488 2 4.05 10.125 10.125 -3.36 0.00871936
523 2 2.025 12.15 10.125 -3.36 0.0101512
524 2 4.34984e-07 14.175 10.125 -3.36 0.0552405
528 2 4.05 14.175 10.125 -3.36 0.0582845
682 2 2.025 10.125 12.15 -3.36 0.00336155
684 2 4.34984e-07 10.125 14.175 -3.36 0.0155755
688 2 4.05 10.125 14.175 -3.36 0.0296162
721 2 4.34984e-07 12.15 12.15 -3.36 0.0347689
722 2 2.025 14.175 12.15 -3.36 0.00722795
723 2 2.025 12.15 14.175 -3.36 0.0278806
724 2 4.34984e-07 14.175 14.175 -3.36 0.0144407
725 2 4.05 12.15 12.15 -3.36 0.0150641
728 2 4.05 14.175 14.175 -3.36 0.153795
492 2 8.1 10.125 10.125 -3.36 0.0240393
527 2 6.075 12.15 10.125 -3.36 0.0398086
532 2 8.1 14.175 10.125 -3.36 0.0168894
686 2 6.075 10.125 12.15 -3.36 0.0133289
692 2 8.1 10.125 14.175 -3.36 0.053484
726 2 6.075 14.175 12.15 -3.36 0.0169379
727 2 6.075 12.15 14.175 -3.36 0.0559907
729 2 8.1 12.15 12.15 -3.36 0.0582163
732 2 8.1 14.175 14.175 -3.36 0.0217679
496 2 12.15 10.125 10.125 -3.36 0.00136749
531 2 10.125 12.15 10.125 -3.36 0.0743792
535 2 14.175 12.15 10.125 -3.36 0.017581
536 2 12.15 14.175 10.125 -3.36 0.0287652
690 2 10.125 10.125 12.15 -3.36 0.0260203
694 2 14.175 10.125 12.15 -3.36 0.0218712
696 2 12.15 10.125 14.175 -3.36 0.0186396
730 2 10.125 14.175 12.15 -3.36 0.0219073
731 2 10.125 12.15 14.175 -3.36 0.0439029
733 2 12.15 12.15 12.15 -3.36 0.0833749
734 2 14.175 14.175 12.15 -3.36 0.0160829
735 2 14.175 12.15 14.175 -3.36 0.0119569
736 2 12.15 14.175 14.175 -3.36 0.00180844
500 2 16.2 10.125 10.125 -3.36 0.0292329
539 2 18.225 12.15 10.125 -3.36 0.012345
540 2 16.2 14.175 10.125 -3.36 0.0446548
698 2 18.225 10.125 12.15 -3.36 0.0656794
700 2 16.2 10.125 14.175 -3.36 0.00643178
737 2 16.2 12.15 12.15 -3.36 0.02368
738 2 18.225 14.175 12.15 -3.36 0.000737056
739 2 18.225 12.15 14.175 -3.36 0.00616481
740 2 16.2 14.175 14.175 -3.36 0.0271511
504 2 20.25 10.125 10.125 -3.36 0.0199571
508 2 24.3 10.125 10.125 -3.36 0.0426792
543 2 22.275 12.15 10.125 -3.36 0.0182697
544 2 20.25 14.175 10.125 -3.36 0.0906371
548 2 24.3 14.175 10.125 -3.36 0.0761149
702 2 22.275 10.125 12.15 -3.36 0.184087
704 2 20.25 10.125 14.175 -3.36 0.00256766
708 2 24.3 10.125 14.175 -3.36 0.0311137
741 2 20.25 12.15 12.15 -3.36 0.118985
742 2 22.275 14.175 12.15 -3.36 0.101043
743 2 22.275 12.15 14.175 -3.36 0.0376091
744 2 20.25 14.175 14.175 -3.36 0.00719523
745 2 24.3 12.15 12.15 -3.36 0.075227
748 2 24.3 14.175 14.175 -3.36 0.0520366
512 2 28.35 10.125 10.125 -3.36 0.0125333
547 2 26.325 12.15 10.125 -3.36 0.0242276
552 2 28.35 14.175 10.125 -3.36 0.0372406
706 2 26.325 10.125 12.15 -3.36 0.027213
712 2 28.35 10.125 14.175 -3.36 0.0564162
746 2 26.325 14.175 12.15 -3.36 0.0308926
747 2 26.325 12.15 14.175 -3.36 0.0306415
749 2 28.35 12.15 12.15 -3.36 0.00648831
752 2 28.35 14.175 14.175 -3.36 0.0187608