LAMMPS data file via write_data, version 23 Jun 2022, timestep = 0

54 atoms
3 atom types

0 8.76 xlo xhi
0 8.76 ylo yhi
0 8.76 zlo zhi

Masses

1 58.6934
2 26.9815
3 101.0699

Atoms # atomic

1 3 0 0 0 0 0 0
2 3 2.92 0 0 0 0 0
3 3 5.84 0 0 0 0 0
4 3 0 2.92 0 0 0 0
5 3 2.92 2.92 0 0 0 0
6 3 5.84 2.92 0 0 0 0
7 3 0 0 2.92 0 0 0
8 3 2.92 0 2.92 0 0 0
9 3 5.84 0 2.92 0 0 0
10 3 0 2.92 2.92 0 0 0
11 3 2.92 2.92 2.92 0 0 0
12 3 5.84 2.92 2.92 0 0 0
28 1 1.46 1.46 1.46 0 0 0
29 1 4.38 1.46 1.46 0 0 0
30 1 7.3 1.46 1.46 0 0 0
13 3 0 0 5.84 0 0 0
14 3 2.92 0 5.84 0 0 0
15 3 5.84 0 5.84 0 0 0
16 3 0 2.92 5.84 0 0 0
17 3 2.92 2.92 5.84 0 0 0
18 3 5.84 2.92 5.84 0 0 0
31 1 1.46 1.46 4.38 0 0 0
32 1 4.38 1.46 4.38 0 0 0
33 1 7.3 1.46 4.38 0 0 0
34 1 1.46 1.46 7.3 0 0 0
35 1 4.38 1.46 7.3 0 0 0
36 1 7.3 1.46 7.3 0 0 0
19 3 0 5.84 0 0 0 0
20 3 2.92 5.84 0 0 0 0
21 3 5.84 5.84 0 0 0 0
22 3 0 5.84 2.92 0 0 0
23 3 2.92 5.84 2.92 0 0 0
24 3 5.84 5.84 2.92 0 0 0
37 1 1.46 4.38 1.46 0 0 0
38 1 4.38 4.38 1.46 0 0 0
39 1 7.3 4.38 1.46 0 0 0
40 1 1.46 7.3 1.46 0 0 0
41 1 4.38 7.3 1.46 0 0 0
42 1 7.3 7.3 1.46 0 0 0
25 3 0 5.84 5.84 0 0 0
26 3 2.92 5.84 5.84 0 0 0
27 3 5.84 5.84 5.84 0 0 0
43 1 1.46 4.38 4.38 0 0 0
44 1 4.38 4.38 4.38 0 0 0
45 1 7.3 4.38 4.38 0 0 0
46 1 1.46 7.3 4.38 0 0 0
47 1 4.38 7.3 4.38 0 0 0
48 1 7.3 7.3 4.38 0 0 0
49 1 1.46 4.38 7.3 0 0 0
50 1 4.38 4.38 7.3 0 0 0
51 1 7.3 4.38 7.3 0 0 0
52 1 1.46 7.3 7.3 0 0 0
53 1 4.38 7.3 7.3 0 0 0
54 1 7.3 7.3 7.3 0 0 0

Velocities

1 0 0 0
2 0 0 0
3 0 0 0
4 0 0 0
5 0 0 0
6 0 0 0
7 0 0 0
8 0 0 0
9 0 0 0
10 0 0 0
11 0 0 0
12 0 0 0
28 0 0 0
29 0 0 0
30 0 0 0
13 0 0 0
14 0 0 0
15 0 0 0
16 0 0 0
17 0 0 0
18 0 0 0
31 0 0 0
32 0 0 0
33 0 0 0
34 0 0 0
35 0 0 0
36 0 0 0
19 0 0 0
20 0 0 0
21 0 0 0
22 0 0 0
23 0 0 0
24 0 0 0
37 0 0 0
38 0 0 0
39 0 0 0
40 0 0 0
41 0 0 0
42 0 0 0
25 0 0 0
26 0 0 0
27 0 0 0
43 0 0 0
44 0 0 0
45 0 0 0
46 0 0 0
47 0 0 0
48 0 0 0
49 0 0 0
50 0 0 0
51 0 0 0
52 0 0 0
53 0 0 0
54 0 0 0
