LAMMPS (22 Jul 2025)
  using 1 OpenMP thread(s) per MPI task
# Compute elastic constant tensor for a crystal at finite temperature
#
# WARNING: This script attempts to measure small differences in
# statistical averages generated by finite temperature MD simulations.
# This creates many more opportunities for errors to occur, compared
# to the zero temperature version provided in examples/ELASTIC.
# Hence, it is always a good idea to start with the zero temperature
# calculation, before attempting to use this script.
#
# Written by Aidan Thompson (Sandia, athomps@sandia.gov)
#
#  This script uses the following three include files.
#
#   init.mod      (must be modified for different crystal structures)
# 	       	  Define units, MD parameters, deformation parameters,
#		  and initial configuration of the atoms and simulation cell.
#
#
#   potential.mod    (must be modified for different pair styles)
# 		     Define pair style and other attributes
#		     not stored in restart file
#
#
#   displace.mod    (displace.mod should not need to be modified)
# 		    Perform positive and negative box displacements
# 		    in direction ${dir} and size ${up}.
# 		    It uses the resultant changes
#		    in stress to compute one
# 		    row of the elastic stiffness tensor
#
#		    Inputs variables:
#		    	   dir = the Voigt deformation component
#		    		    (1,2,3,4,5,6)
#		    Global constants:
#       	    	   up = the deformation magnitude (strain units)
#       		   cfac = conversion from LAMMPS pressure units to
#               	   output units for elastic constants
#
#
#  To run this on a different system, it should only be necessary to
#  modify the files init.mod and potential.mod. In order to calculate
#  the elastic constants correctly, care must be taken to specify
#  the correct units in init.mod (units, cfac and cunits). It is also
#  important to verify that the MD sampling of stress components
#  is generating accurate statistical averages.
#  One indication of this is that the elastic constants are insensitive
#  to the choice of the variable ${up} in init.mod. Another is to
#  check for finite size effects.
#

include init.mod
# NOTE: This script can be modified for different atomic structures,
# units, etc. See in.elastic for more info.
#

# Define the finite deformation size. Try several values of this
# variable to verify that results do not depend on it.
variable up equal 1.0e-2

# metal units, elastic constants in GPa
units		metal
variable cfac equal 1.0e-4
variable cunits string GPa

# Define MD parameters
variable nevery equal 400                  # sampling interval
variable nrepeat equal 400                 # number of samples
variable nfreq equal ${nevery}*${nrepeat} # length of one average
variable nfreq equal 400*${nrepeat} 
variable nfreq equal 400*400 
variable nthermo equal ${nfreq}           # interval for thermo output
variable nthermo equal 160000           
variable nequil equal 10*${nthermo}       # length of equilibration run
variable nequil equal 10*160000       
variable nrun equal 3*${nthermo}          # length of equilibrated run
variable nrun equal 3*160000          
variable temp equal 300.0                # temperature of initial sample
variable timestep equal 0.001             # timestep
variable mass1 equal 26.981539            # mass
variable adiabatic equal 0                # adiabatic (1) or isothermal (2)
variable tdamp equal 0.01                 # time constant for thermostat
variable seed equal 123457                # seed for thermostat
variable pdamp equal 0.1
# generate the box and atom positions using a fcc lattice
variable a equal 4.05

boundary        p p p


lattice        fcc $a
lattice        fcc 4.05
Lattice spacing in x,y,z = 4.05 4.05 4.05
region         box prism 0 10.0 0 10.0 0 10.0 0.0 0.0 0.0
create_box     1 box
Created triclinic box = (0 0 0) to (40.5 40.5 40.5) with tilt (0 0 0)
  2 by 3 by 5 MPI processor grid
create_atoms   1 box
Created 4000 atoms
  using lattice units in triclinic box = (0 0 0) to (40.5 40.5 40.5) with tilt (0 0 0)
  create_atoms CPU = 0.001 seconds



mass 1 ${mass1}
mass 1 26.981539
velocity        all create ${temp} 87287
velocity        all create 300 87287


# Compute initial state

variable thermostat equal 1
include potential.mod
# NOTE: This script can be modified for different pair styles
# See in.elastic for more info.

# we must undefine any fix ave/* fix before using reset_timestep
if "$(is_defined(fix,avp))" then "unfix avp"
reset_timestep 0

# Choose potential

pair_style  meam
pair_coeff * * library-Al.meam Al Al.meam Al



# Setup neighbor style
neighbor 1.0 nsq
neigh_modify once no every 1 delay 0 check yes

# Setup output

fix avp all ave/time  ${nevery} ${nrepeat} ${nfreq} c_thermo_press mode vector
fix avp all ave/time  400 ${nrepeat} ${nfreq} c_thermo_press mode vector
fix avp all ave/time  400 400 ${nfreq} c_thermo_press mode vector
fix avp all ave/time  400 400 160000 c_thermo_press mode vector
thermo		${nthermo}
thermo		160000
thermo_style custom step temp pe press f_avp[1] f_avp[2] f_avp[3] f_avp[4] f_avp[5] f_avp[6]
thermo_modify norm no

# Setup MD

timestep ${timestep}
timestep 0.001
fix 4 all nve
if "${thermostat} == 1" then    "fix 5 all langevin ${temp} ${temp} ${tdamp} ${seed}"
fix 5 all langevin ${temp} ${temp} ${tdamp} ${seed}
fix 5 all langevin 300 ${temp} ${tdamp} ${seed}
fix 5 all langevin 300 300 ${tdamp} ${seed}
fix 5 all langevin 300 300 0.01 ${seed}
fix 5 all langevin 300 300 0.01 123457


run ${nequil}
run 1600000
Neighbor list info ...
  update: every = 1 steps, delay = 0 steps, check = yes
  max neighbors/atom: 2000, page size: 100000
  master list distance cutoff = 6
  ghost atom cutoff = 6
  2 neighbor lists, perpetual/occasional/extra = 2 0 0
  (1) pair meam, perpetual
      attributes: full, newton on
      pair build: full/nsq
      stencil: none
      bin: none
  (2) pair meam, perpetual, half/full from (1)
      attributes: half, newton on
      pair build: halffull/newton/tri
      stencil: none
      bin: none
Per MPI rank memory allocation (min/avg/max) = 8.81 | 8.858 | 8.886 Mbytes
   Step          Temp          PotEng         Press         f_avp[1]       f_avp[2]       f_avp[3]       f_avp[4]       f_avp[5]       f_avp[6]   
         0   299.99957     -13439.96       2492.7424      0              0              0              0              0              0            
    160000   301.40355     -13282.527      15456.871      15534.725      15523.453      15498.311      0.9752343     -7.6448068     -7.1432224    
    320000   300.1758      -13280.577      15620.072      15514.492      15504.236      15509.025     -4.0735435     -6.349175      -0.75121496   
    480000   304.463       -13281.824      15523.76       15515.622      15513.386      15528.837     -3.3799234     -7.8757643     -3.702081     
    640000   297.28329     -13281.209      15507.645      15512.327      15516.441      15508.376     -4.5361835     -3.463008       4.6840565    
    800000   299.42195     -13279.296      15655.779      15502.421      15498.592      15508.576      1.7067778     -19.182237      6.5235561    
    960000   305.3832      -13282.072      15511.622      15514.198      15482.801      15499.064     -5.1650321     -7.414165       13.521876    
   1120000   300.40621     -13280.484      15607.472      15524.189      15528.62       15518.08       0.75269834     5.0811489     -5.5527653    
   1280000   299.33391     -13282.179      15467.717      15510.287      15486.941      15502.645     -6.0057414     -0.40954249    -0.48817842   
   1440000   296.13146     -13282.974      15358.297      15519.274      15508.988      15496.215     -1.2105101      2.1184882     -4.4809628    
   1600000   298.52069     -13277.861      15792.212      15522.639      15508.622      15514.272     -7.4944263     -2.056546      -1.2828976    
Loop time of 2957.05 on 30 procs for 1600000 steps with 4000 atoms

Performance: 46.749 ns/day, 0.513 hours/ns, 541.080 timesteps/s, 2.164 Matom-step/s
91.2% CPU use with 30 MPI tasks x 1 OpenMP threads

MPI task timing breakdown:
Section |  min time  |  avg time  |  max time  |%varavg| %total
---------------------------------------------------------------
Pair    | 2638.8     | 2721.5     | 2788.2     |  85.9 | 92.03
Neigh   | 1.9767     | 2.1333     | 2.3092     |   8.7 |  0.07
Comm    | 130.79     | 198.63     | 282.52     | 326.0 |  6.72
Output  | 0.00049792 | 0.00053412 | 0.00072783 |   0.0 |  0.00
Modify  | 12.229     | 12.991     | 13.823     |  13.7 |  0.44
Other   |            | 21.78      |            |       |  0.74

Nlocal:        133.333 ave         146 max         121 min
Histogram: 5 2 1 3 3 3 3 6 2 2
Nghost:        819.267 ave         868 max         782 min
Histogram: 3 5 5 4 3 0 0 4 4 2
Neighs:        3595.07 ave        3943 max        3251 min
Histogram: 6 1 2 4 1 3 2 7 2 2
FullNghs:      7190.13 ave        7875 max        6528 min
Histogram: 5 3 0 4 2 4 2 6 2 2

Total # of neighbors = 215704
Ave neighs/atom = 53.926
Neighbor list builds = 5363
Dangerous builds = 0


fix 2  all npt temp ${temp} ${temp} ${tdamp} drag 1.0 pchain 8 aniso 0.0 0.0 ${pdamp}
fix 2  all npt temp 300 ${temp} ${tdamp} drag 1.0 pchain 8 aniso 0.0 0.0 ${pdamp}
fix 2  all npt temp 300 300 ${tdamp} drag 1.0 pchain 8 aniso 0.0 0.0 ${pdamp}
fix 2  all npt temp 300 300 0.01 drag 1.0 pchain 8 aniso 0.0 0.0 ${pdamp}
fix 2  all npt temp 300 300 0.01 drag 1.0 pchain 8 aniso 0.0 0.0 0.1
run ${nequil}
run 1600000
WARNING: One or more atoms are time integrated more than once
For more information see https://docs.lammps.org/err0032 (src/modify.cpp:298)
Per MPI rank memory allocation (min/avg/max) = 8.843 | 8.871 | 8.899 Mbytes
   Step          Temp          PotEng         Press         f_avp[1]       f_avp[2]       f_avp[3]       f_avp[4]       f_avp[5]       f_avp[6]   
   1600000   298.52069     -13277.861      15792.212      15522.639      15508.622      15514.272     -7.4944263     -2.056546      -1.2828976    
   1760000   567.52242     -13096.159      285.091       -77.007802     -91.810327     -105.22975      11.715723      4.980871      -13.063968    
   1920000   573.12186     -13096.194      537.42244     -51.716852     -123.39668     -83.055975     -6.5348268      11.00643      -4.5481892    
   2080000   581.95749     -13100.521      242.3916      -35.251943     -50.94348      -57.563335     -8.7018068     -9.1127919      2.0741258    
   2240000   571.57964     -13098.36      -593.50695     -92.991728     -112.22083     -93.033437      25.193778      25.884577     -14.654005    
   2400000   570.41687     -13097.446      540.32227     -64.82006      -72.564268     -140.15655     -19.918673     -3.6071364     -0.22320568   
   2560000   578.05671     -13082.379     -707.75526     -88.765694     -59.991221     -75.353856      3.4744157      3.8229856      3.0033934    
   2720000   566.71851     -13098.192     -273.50825     -62.924438     -57.149801     -43.65151      -6.6408424      5.389467      -37.733346    
   2880000   583.67754     -13096.333      588.29582     -155.03013     -72.43719      -144.28617     -21.209914     -4.3944785     -13.538039    
   3040000   580.30699     -13092.043     -103.87745     -68.580931     -61.577112     -89.114862     -8.999249       26.660749     -26.381255    
   3200000   573.55441     -13099.655      207.72442     -97.03026      -116.39503     -83.09409       14.963025     -3.8688951      17.682583    
Loop time of 2983.07 on 30 procs for 1600000 steps with 4000 atoms

Performance: 46.342 ns/day, 0.518 hours/ns, 536.361 timesteps/s, 2.145 Matom-step/s
91.2% CPU use with 30 MPI tasks x 1 OpenMP threads

MPI task timing breakdown:
Section |  min time  |  avg time  |  max time  |%varavg| %total
---------------------------------------------------------------
Pair    | 2537.1     | 2662.4     | 2742.5     | 106.0 | 89.25
Neigh   | 21.187     | 23.947     | 26.043     |  35.2 |  0.80
Comm    | 138        | 216.53     | 344.12     | 385.6 |  7.26
Output  | 0.00051504 | 0.00055151 | 0.00076804 |   0.0 |  0.00
Modify  | 60.555     | 63.146     | 65.958     |  20.9 |  2.12
Other   |            | 17         |            |       |  0.57

Nlocal:        133.333 ave         143 max         118 min
Histogram: 5 4 1 0 0 0 0 1 17 2
Nghost:        849.033 ave         880 max         810 min
Histogram: 3 6 1 0 0 0 8 2 4 6
Neighs:         3473.5 ave        3725 max        3059 min
Histogram: 3 7 0 0 0 0 0 1 14 5
FullNghs:         6947 ave        7470 max        6121 min
Histogram: 4 5 1 0 0 0 0 3 14 3

Total # of neighbors = 208410
Ave neighs/atom = 52.1025
Neighbor list builds = 64138
Dangerous builds = 0
unfix 2

if "${adiabatic} == 1" then "variable thermostat equal 0" else "variable thermostat equal 1"
variable thermostat equal 1

print ${thermostat}
print 1
1

include potential.mod
# NOTE: This script can be modified for different pair styles
# See in.elastic for more info.

# we must undefine any fix ave/* fix before using reset_timestep
if "$(is_defined(fix,avp))" then "unfix avp"
unfix avp
reset_timestep 0

# Choose potential

pair_style  meam
pair_coeff * * library-Al.meam Al Al.meam Al



# Setup neighbor style
neighbor 1.0 nsq
neigh_modify once no every 1 delay 0 check yes

# Setup output

fix avp all ave/time  ${nevery} ${nrepeat} ${nfreq} c_thermo_press mode vector
fix avp all ave/time  400 ${nrepeat} ${nfreq} c_thermo_press mode vector
fix avp all ave/time  400 400 ${nfreq} c_thermo_press mode vector
fix avp all ave/time  400 400 160000 c_thermo_press mode vector
thermo		${nthermo}
thermo		160000
thermo_style custom step temp pe press f_avp[1] f_avp[2] f_avp[3] f_avp[4] f_avp[5] f_avp[6]
WARNING: New thermo_style command, previous thermo_modify settings will be lost (src/output.cpp:912)
thermo_modify norm no

# Setup MD

timestep ${timestep}
timestep 0.001
fix 4 all nve
if "${thermostat} == 1" then    "fix 5 all langevin ${temp} ${temp} ${tdamp} ${seed}"
fix 5 all langevin ${temp} ${temp} ${tdamp} ${seed}
fix 5 all langevin 300 ${temp} ${tdamp} ${seed}
fix 5 all langevin 300 300 ${tdamp} ${seed}
fix 5 all langevin 300 300 0.01 ${seed}
fix 5 all langevin 300 300 0.01 123457


run ${nrun}
run 480000
Per MPI rank memory allocation (min/avg/max) = 8.848 | 8.873 | 8.899 Mbytes
   Step          Temp          PotEng         Press         f_avp[1]       f_avp[2]       f_avp[3]       f_avp[4]       f_avp[5]       f_avp[6]   
         0   573.55441     -13099.655      207.72442      0              0              0              0              0              0            
    160000   300.88002     -13247.267     -15016.598     -15085.659     -14642.299     -14777.198     -7.9345875     -17.411496     -6.9418036    
    320000   296.66528     -13247.565     -15015.631     -15073.653     -14649.936     -14765.495     -11.812053     -6.0154745     -4.4468519    
    480000   307.06101     -13246.568     -14890.188     -15103.216     -14659.429     -14787.545      6.8676108     -5.8393602      1.3824963    
Loop time of 817.858 on 30 procs for 480000 steps with 4000 atoms

Performance: 50.708 ns/day, 0.473 hours/ns, 586.899 timesteps/s, 2.348 Matom-step/s
90.5% CPU use with 30 MPI tasks x 1 OpenMP threads

MPI task timing breakdown:
Section |  min time  |  avg time  |  max time  |%varavg| %total
---------------------------------------------------------------
Pair    | 716.03     | 750.83     | 769.67     |  59.7 | 91.80
Neigh   | 0.77176    | 0.90962    | 0.98837    |   9.3 |  0.11
Comm    | 35.95      | 56.265     | 91.099     | 218.6 |  6.88
Output  | 0.00011726 | 0.00014475 | 0.00019069 |   0.0 |  0.00
Modify  | 3.2514     | 3.7053     | 4.251      |  14.4 |  0.45
Other   |            | 6.149      |            |       |  0.75

Nlocal:        133.333 ave         148 max         113 min
Histogram: 1 4 4 1 0 1 5 4 7 3
Nghost:        754.367 ave         784 max         714 min
Histogram: 5 3 1 1 0 0 3 7 6 4
Neighs:        3542.43 ave        3982 max        2992 min
Histogram: 1 5 3 1 0 4 3 6 5 2
FullNghs:      7084.87 ave        7873 max        6002 min
Histogram: 1 4 4 1 0 2 4 7 4 3

Total # of neighbors = 212546
Ave neighs/atom = 53.1365
Neighbor list builds = 2459
Dangerous builds = 0

variable pxx0 equal f_avp[1]
variable pyy0 equal f_avp[2]
variable pzz0 equal f_avp[3]
variable pxy0 equal f_avp[4]
variable pxz0 equal f_avp[5]
variable pyz0 equal f_avp[6]

variable tmp equal lx
variable lx0 equal ${tmp}
variable lx0 equal 41.2087878139
variable tmp equal ly
variable ly0 equal ${tmp}
variable ly0 equal 41.1600464347122
variable tmp equal lz
variable lz0 equal ${tmp}
variable lz0 equal 41.1736635304057

# These formulas define the derivatives w.r.t. strain components
# Constants uses $, variables use v_
variable d1 equal -(v_pxx1-${pxx0})/(v_delta/v_len0)*${cfac}
variable d1 equal -(v_pxx1--15103.216368829)/(v_delta/v_len0)*${cfac}
variable d1 equal -(v_pxx1--15103.216368829)/(v_delta/v_len0)*0.0001
variable d2 equal -(v_pyy1-${pyy0})/(v_delta/v_len0)*${cfac}
variable d2 equal -(v_pyy1--14659.429498887)/(v_delta/v_len0)*${cfac}
variable d2 equal -(v_pyy1--14659.429498887)/(v_delta/v_len0)*0.0001
variable d3 equal -(v_pzz1-${pzz0})/(v_delta/v_len0)*${cfac}
variable d3 equal -(v_pzz1--14787.5451413787)/(v_delta/v_len0)*${cfac}
variable d3 equal -(v_pzz1--14787.5451413787)/(v_delta/v_len0)*0.0001
variable d4 equal -(v_pyz1-${pyz0})/(v_delta/v_len0)*${cfac}
variable d4 equal -(v_pyz1-1.38249625809142)/(v_delta/v_len0)*${cfac}
variable d4 equal -(v_pyz1-1.38249625809142)/(v_delta/v_len0)*0.0001
variable d5 equal -(v_pxz1-${pxz0})/(v_delta/v_len0)*${cfac}
variable d5 equal -(v_pxz1--5.83936022116832)/(v_delta/v_len0)*${cfac}
variable d5 equal -(v_pxz1--5.83936022116832)/(v_delta/v_len0)*0.0001
variable d6 equal -(v_pxy1-${pxy0})/(v_delta/v_len0)*${cfac}
variable d6 equal -(v_pxy1-6.86761084001833)/(v_delta/v_len0)*${cfac}
variable d6 equal -(v_pxy1-6.86761084001833)/(v_delta/v_len0)*0.0001

# Write restart
write_restart restart.equil
System init for write_restart ...

# uxx Perturbation

variable dir equal 1
include displace.mod
# NOTE: This script should not need to be
# modified. See in.elastic for more info.
#
# Find which reference length to use

if "${dir} == 1" then    "variable len0 equal ${lx0}"
variable len0 equal ${lx0}
variable len0 equal 41.2087878139
if "${dir} == 2" then    "variable len0 equal ${ly0}"
if "${dir} == 3" then    "variable len0 equal ${lz0}"
if "${dir} == 4" then    "variable len0 equal ${lz0}"
if "${dir} == 5" then    "variable len0 equal ${lz0}"
if "${dir} == 6" then    "variable len0 equal ${ly0}"

# Reset box and simulation parameters

clear
  using 1 OpenMP thread(s) per MPI task
box tilt large

The 'box' command has been removed and will be ignored

read_restart restart.equil
Reading restart file ...
  restart file = 22 Jul 2025, LAMMPS = 22 Jul 2025
  restoring atom style atomic from restart
  triclinic box = (-0.35439391 -0.33002322 -0.33683177) to (40.854394 40.830023 40.836832) with tilt (0 0 0)
  5 by 2 by 3 MPI processor grid
  pair style meam stores no restart info
  4000 atoms
  read_restart CPU = 0.011 seconds
include potential.mod
# NOTE: This script can be modified for different pair styles
# See in.elastic for more info.

# we must undefine any fix ave/* fix before using reset_timestep
if "$(is_defined(fix,avp))" then "unfix avp"
reset_timestep 0

# Choose potential

pair_style  meam
pair_coeff * * library-Al.meam Al Al.meam Al



# Setup neighbor style
neighbor 1.0 nsq
neigh_modify once no every 1 delay 0 check yes

# Setup output

fix avp all ave/time  ${nevery} ${nrepeat} ${nfreq} c_thermo_press mode vector
fix avp all ave/time  400 ${nrepeat} ${nfreq} c_thermo_press mode vector
fix avp all ave/time  400 400 ${nfreq} c_thermo_press mode vector
fix avp all ave/time  400 400 160000 c_thermo_press mode vector
thermo		${nthermo}
thermo		160000
thermo_style custom step temp pe press f_avp[1] f_avp[2] f_avp[3] f_avp[4] f_avp[5] f_avp[6]
thermo_modify norm no

# Setup MD

timestep ${timestep}
timestep 0.001
fix 4 all nve
if "${thermostat} == 1" then    "fix 5 all langevin ${temp} ${temp} ${tdamp} ${seed}"
fix 5 all langevin ${temp} ${temp} ${tdamp} ${seed}
fix 5 all langevin 300 ${temp} ${tdamp} ${seed}
fix 5 all langevin 300 300 ${tdamp} ${seed}
fix 5 all langevin 300 300 0.01 ${seed}
fix 5 all langevin 300 300 0.01 123457



# Negative deformation

variable delta equal -${up}*${len0}
variable delta equal -0.01*${len0}
variable delta equal -0.01*41.2087878139
variable deltaxy equal -${up}*xy
variable deltaxy equal -0.01*xy
variable deltaxz equal -${up}*xz
variable deltaxz equal -0.01*xz
variable deltayz equal -${up}*yz
variable deltayz equal -0.01*yz
if "${dir} == 1" then    "change_box all x delta 0 ${delta} xy delta ${deltaxy} xz delta ${deltaxz} remap units box"
change_box all x delta 0 ${delta} xy delta ${deltaxy} xz delta ${deltaxz} remap units box
change_box all x delta 0 -0.412087878139 xy delta ${deltaxy} xz delta ${deltaxz} remap units box
change_box all x delta 0 -0.412087878139 xy delta 0 xz delta ${deltaxz} remap units box
change_box all x delta 0 -0.412087878139 xy delta 0 xz delta 0 remap units box
Changing box ...
  triclinic box = (-0.35439391 -0.33002322 -0.33683177) to (40.442306 40.830023 40.836832) with tilt (0 0 0)
  triclinic box = (-0.35439391 -0.33002322 -0.33683177) to (40.442306 40.830023 40.836832) with tilt (0 0 0)
  triclinic box = (-0.35439391 -0.33002322 -0.33683177) to (40.442306 40.830023 40.836832) with tilt (0 0 0)
if "${dir} == 2" then    "change_box all y delta 0 ${delta} yz delta ${deltayz} remap units box"
if "${dir} == 3" then    "change_box all z delta 0 ${delta} remap units box"
if "${dir} == 4" then    "change_box all yz delta ${delta} remap units box"
if "${dir} == 5" then    "change_box all xz delta ${delta} remap units box"
if "${dir} == 6" then    "change_box all xy delta ${delta} remap units box"

# Run MD

run ${nequil}
run 1600000
Neighbor list info ...
  update: every = 1 steps, delay = 0 steps, check = yes
  max neighbors/atom: 2000, page size: 100000
  master list distance cutoff = 6
  ghost atom cutoff = 6
  2 neighbor lists, perpetual/occasional/extra = 2 0 0
  (1) pair meam, perpetual
      attributes: full, newton on
      pair build: full/nsq
      stencil: none
      bin: none
  (2) pair meam, perpetual, half/full from (1)
      attributes: half, newton on
      pair build: halffull/newton/tri
      stencil: none
      bin: none
Per MPI rank memory allocation (min/avg/max) = 8.816 | 8.826 | 8.834 Mbytes
   Step          Temp          PotEng         Press         f_avp[1]       f_avp[2]       f_avp[3]       f_avp[4]       f_avp[5]       f_avp[6]   
         0   307.06101     -13252.459     -9073.5641      0              0              0              0              0              0            
    160000   307.41075     -13254.699     -9284.1966     -7321.662      -10682.994     -10800.67      -6.6145339      7.7305482      7.1441778    
    320000   298.35655     -13255.464     -9433.5135     -7326.2752     -10663.712     -10804.559     -6.7254035      2.0663417     -0.6701366    
    480000   297.84461     -13260.331     -9809.0412     -7313.7244     -10661.567     -10778.747      1.4123851     -1.2809409     -3.8554997    
    640000   299.92013     -13258.555     -9666.1462     -7303.8204     -10653.331     -10799.999      6.5482291     -1.3870554     -4.189591     
    800000   302.38814     -13256.919     -9547.6698     -7321.9842     -10651.771     -10796.78      -12.764747      9.7325741     -0.68147493   
    960000   299.81387     -13258.306     -9651.4762     -7320.8746     -10672.253     -10790.835      10.574534      2.3065851     -7.2016483    
   1120000   297.54474     -13259.179     -9693.3083     -7304.6842     -10660.861     -10792.685      2.5391906      4.7298667      13.261027    
   1280000   291.03761     -13254.799     -9435.4605     -7322.6566     -10674.972     -10810.769      1.1629919     -1.6624152      0.66214672   
   1440000   296.82808     -13257.724     -9648.8941     -7326.5968     -10662.461     -10804.262     -0.13959057     3.3525121      3.8564013    
   1600000   298.01506     -13258.328     -9681.1392     -7321.8332     -10676.107     -10810.062     -10.385368     -2.4237603     -0.78662797   
Loop time of 2899.99 on 30 procs for 1600000 steps with 4000 atoms

Performance: 47.669 ns/day, 0.503 hours/ns, 551.726 timesteps/s, 2.207 Matom-step/s
90.1% CPU use with 30 MPI tasks x 1 OpenMP threads

MPI task timing breakdown:
Section |  min time  |  avg time  |  max time  |%varavg| %total
---------------------------------------------------------------
Pair    | 2518.1     | 2630.9     | 2724.8     |  98.6 | 90.72
Neigh   | 2.5642     | 2.8105     | 3.1086     |  11.1 |  0.10
Comm    | 132.97     | 220.81     | 334.99     | 320.1 |  7.61
Output  | 0.00044237 | 0.00049052 | 0.00062497 |   0.0 |  0.00
Modify  | 11.351     | 12.17      | 13.042     |  14.8 |  0.42
Other   |            | 33.29      |            |       |  1.15

Nlocal:        133.333 ave         143 max         122 min
Histogram: 1 4 1 5 3 4 1 3 4 4
Nghost:          804.5 ave         853 max         767 min
Histogram: 2 10 5 2 1 0 0 0 6 4
Neighs:         3561.4 ave        3865 max        3216 min
Histogram: 1 2 3 3 9 0 3 1 4 4
FullNghs:       7122.8 ave        7657 max        6506 min
Histogram: 1 3 2 5 3 4 1 4 4 3

Total # of neighbors = 213684
Ave neighs/atom = 53.421
Neighbor list builds = 7613
Dangerous builds = 0
include potential.mod
# NOTE: This script can be modified for different pair styles
# See in.elastic for more info.

# we must undefine any fix ave/* fix before using reset_timestep
if "$(is_defined(fix,avp))" then "unfix avp"
unfix avp
reset_timestep 0

# Choose potential

pair_style  meam
pair_coeff * * library-Al.meam Al Al.meam Al



# Setup neighbor style
neighbor 1.0 nsq
neigh_modify once no every 1 delay 0 check yes

# Setup output

fix avp all ave/time  ${nevery} ${nrepeat} ${nfreq} c_thermo_press mode vector
fix avp all ave/time  400 ${nrepeat} ${nfreq} c_thermo_press mode vector
fix avp all ave/time  400 400 ${nfreq} c_thermo_press mode vector
fix avp all ave/time  400 400 160000 c_thermo_press mode vector
thermo		${nthermo}
thermo		160000
thermo_style custom step temp pe press f_avp[1] f_avp[2] f_avp[3] f_avp[4] f_avp[5] f_avp[6]
WARNING: New thermo_style command, previous thermo_modify settings will be lost (src/output.cpp:912)
thermo_modify norm no

# Setup MD

timestep ${timestep}
timestep 0.001
fix 4 all nve
if "${thermostat} == 1" then    "fix 5 all langevin ${temp} ${temp} ${tdamp} ${seed}"
fix 5 all langevin ${temp} ${temp} ${tdamp} ${seed}
fix 5 all langevin 300 ${temp} ${tdamp} ${seed}
fix 5 all langevin 300 300 ${tdamp} ${seed}
fix 5 all langevin 300 300 0.01 ${seed}
fix 5 all langevin 300 300 0.01 123457


run ${nrun}
run 480000
Per MPI rank memory allocation (min/avg/max) = 8.833 | 8.839 | 8.845 Mbytes
   Step          Temp          PotEng         Press         f_avp[1]       f_avp[2]       f_avp[3]       f_avp[4]       f_avp[5]       f_avp[6]   
         0   298.01506     -13258.328     -9681.1392      0              0              0              0              0              0            
    160000   299.83594     -13255.749     -9420.1775     -7325.154      -10668.576     -10786.926      8.7524865     -7.879145      -5.7632818    
    320000   305.04448     -13258.32      -9599.6176     -7303.7306     -10641.605     -10778.102     -3.73861       -0.48622271    -8.1009043    
    480000   294.74407     -13255.061     -9364.3593     -7311.1387     -10651.091     -10795.013     -5.5046777      2.9427763      8.0215526    
Loop time of 843.931 on 30 procs for 480000 steps with 4000 atoms

Performance: 49.141 ns/day, 0.488 hours/ns, 568.767 timesteps/s, 2.275 Matom-step/s
89.9% CPU use with 30 MPI tasks x 1 OpenMP threads

MPI task timing breakdown:
Section |  min time  |  avg time  |  max time  |%varavg| %total
---------------------------------------------------------------
Pair    | 737.91     | 769.03     | 792.83     |  49.6 | 91.12
Neigh   | 0.74069    | 0.83932    | 0.92561    |   6.9 |  0.10
Comm    | 38.177     | 61.385     | 91.442     | 163.4 |  7.27
Output  | 0.00012549 | 0.00015591 | 0.00020331 |   0.0 |  0.00
Modify  | 3.2812     | 3.6225     | 3.8874     |  10.3 |  0.43
Other   |            | 9.052      |            |       |  1.07

Nlocal:        133.333 ave         144 max         118 min
Histogram: 8 2 0 0 0 0 1 5 8 6
Nghost:        822.133 ave         851 max         786 min
Histogram: 6 4 0 0 1 2 5 2 0 10
Neighs:        3556.77 ave        3919 max        3111 min
Histogram: 3 6 1 0 0 1 5 6 6 2
FullNghs:      7113.53 ave        7659 max        6288 min
Histogram: 8 2 0 0 0 0 1 4 8 7

Total # of neighbors = 213406
Ave neighs/atom = 53.3515
Neighbor list builds = 2292
Dangerous builds = 0

# Obtain new stress tensor

variable pxx1 equal f_avp[1]
variable pyy1 equal f_avp[2]
variable pzz1 equal f_avp[3]
variable pxy1 equal f_avp[4]
variable pxz1 equal f_avp[5]
variable pyz1 equal f_avp[6]

# Compute elastic constant from pressure tensor

variable C1neg equal ${d1}
variable C1neg equal 77.9207765189728
variable C2neg equal ${d2}
variable C2neg equal 40.083386886704
variable C3neg equal ${d3}
variable C3neg equal 39.925323555224
variable C4neg equal ${d4}
variable C4neg equal 0.0663905637229092
variable C5neg equal ${d5}
variable C5neg equal 0.0878213655486584
variable C6neg equal ${d6}
variable C6neg equal -0.123722885615913

# Reset box and simulation parameters

clear
  using 1 OpenMP thread(s) per MPI task
box tilt large

The 'box' command has been removed and will be ignored

read_restart restart.equil
Reading restart file ...
  restart file = 22 Jul 2025, LAMMPS = 22 Jul 2025
  restoring atom style atomic from restart
  triclinic box = (-0.35439391 -0.33002322 -0.33683177) to (40.854394 40.830023 40.836832) with tilt (0 0 0)
  5 by 2 by 3 MPI processor grid
  pair style meam stores no restart info
  4000 atoms
  read_restart CPU = 0.018 seconds
include potential.mod
# NOTE: This script can be modified for different pair styles
# See in.elastic for more info.

# we must undefine any fix ave/* fix before using reset_timestep
if "$(is_defined(fix,avp))" then "unfix avp"
reset_timestep 0

# Choose potential

pair_style  meam
pair_coeff * * library-Al.meam Al Al.meam Al



# Setup neighbor style
neighbor 1.0 nsq
neigh_modify once no every 1 delay 0 check yes

# Setup output

fix avp all ave/time  ${nevery} ${nrepeat} ${nfreq} c_thermo_press mode vector
fix avp all ave/time  400 ${nrepeat} ${nfreq} c_thermo_press mode vector
fix avp all ave/time  400 400 ${nfreq} c_thermo_press mode vector
fix avp all ave/time  400 400 160000 c_thermo_press mode vector
thermo		${nthermo}
thermo		160000
thermo_style custom step temp pe press f_avp[1] f_avp[2] f_avp[3] f_avp[4] f_avp[5] f_avp[6]
thermo_modify norm no

# Setup MD

timestep ${timestep}
timestep 0.001
fix 4 all nve
if "${thermostat} == 1" then    "fix 5 all langevin ${temp} ${temp} ${tdamp} ${seed}"
fix 5 all langevin ${temp} ${temp} ${tdamp} ${seed}
fix 5 all langevin 300 ${temp} ${tdamp} ${seed}
fix 5 all langevin 300 300 ${tdamp} ${seed}
fix 5 all langevin 300 300 0.01 ${seed}
fix 5 all langevin 300 300 0.01 123457



# Positive deformation

variable delta equal ${up}*${len0}
variable delta equal 0.01*${len0}
variable delta equal 0.01*41.2087878139
variable deltaxy equal ${up}*xy
variable deltaxy equal 0.01*xy
variable deltaxz equal ${up}*xz
variable deltaxz equal 0.01*xz
variable deltayz equal ${up}*yz
variable deltayz equal 0.01*yz
if "${dir} == 1" then    "change_box all x delta 0 ${delta} xy delta ${deltaxy} xz delta ${deltaxz} remap units box"
change_box all x delta 0 ${delta} xy delta ${deltaxy} xz delta ${deltaxz} remap units box
change_box all x delta 0 0.412087878139 xy delta ${deltaxy} xz delta ${deltaxz} remap units box
change_box all x delta 0 0.412087878139 xy delta 0 xz delta ${deltaxz} remap units box
change_box all x delta 0 0.412087878139 xy delta 0 xz delta 0 remap units box
Changing box ...
  triclinic box = (-0.35439391 -0.33002322 -0.33683177) to (41.266482 40.830023 40.836832) with tilt (0 0 0)
  triclinic box = (-0.35439391 -0.33002322 -0.33683177) to (41.266482 40.830023 40.836832) with tilt (0 0 0)
  triclinic box = (-0.35439391 -0.33002322 -0.33683177) to (41.266482 40.830023 40.836832) with tilt (0 0 0)
if "${dir} == 2" then    "change_box all y delta 0 ${delta} yz delta ${deltayz} remap units box"
if "${dir} == 3" then    "change_box all z delta 0 ${delta} remap units box"
if "${dir} == 4" then    "change_box all yz delta ${delta} remap units box"
if "${dir} == 5" then    "change_box all xz delta ${delta} remap units box"
if "${dir} == 6" then    "change_box all xy delta ${delta} remap units box"

# Run MD

run ${nequil}
run 1600000
Neighbor list info ...
  update: every = 1 steps, delay = 0 steps, check = yes
  max neighbors/atom: 2000, page size: 100000
  master list distance cutoff = 6
  ghost atom cutoff = 6
  2 neighbor lists, perpetual/occasional/extra = 2 0 0
  (1) pair meam, perpetual
      attributes: full, newton on
      pair build: full/nsq
      stencil: none
      bin: none
  (2) pair meam, perpetual, half/full from (1)
      attributes: half, newton on
      pair build: halffull/newton/tri
      stencil: none
      bin: none
Per MPI rank memory allocation (min/avg/max) = 8.805 | 8.815 | 8.823 Mbytes
   Step          Temp          PotEng         Press         f_avp[1]       f_avp[2]       f_avp[3]       f_avp[4]       f_avp[5]       f_avp[6]   
         0   307.06101     -13237.102     -20163.929      0              0              0              0              0              0            
    160000   300.04022     -13231.866     -19672.707     -22172.662     -18160.608     -18274.717     -10.144728     -9.2695244     -7.6053334    
    320000   297.82918     -13228.935     -19433.297     -22167.996     -18165.529     -18282.776     -16.243451      0.27813386     3.6253793    
    480000   292.61787     -13231.763     -19800.075     -22180.029     -18166.88      -18252.689      2.7129011      0.93788114    -0.048413352  
    640000   294.6782      -13226.145     -19182.204     -22165.613     -18150.305     -18262.063     -3.5043016      2.4445255     -6.9001405    
    800000   302.5377      -13230.995     -19671.769     -22163.338     -18149.134     -18243.41      -9.9408924     -5.9478695     -0.70618948   
    960000   299.32731     -13230.077     -19481.255     -22186.901     -18160.296     -18291.384      0.2534135     -7.2598571     -2.5212789    
   1120000   302.22873     -13227.026     -19257.47      -22208.721     -18173.386     -18282.206     -13.437075     -4.0727508      2.1856744    
   1280000   294.5394      -13230.361     -19629.132     -22167.047     -18167.086     -18276.234     -12.192849      3.4439505     -3.2169632    
   1440000   288.80097     -13229.812     -19582.278     -22162.593     -18149.595     -18261.209      2.6307414      11.204695     -4.9276428    
   1600000   305.27591     -13226.308     -19170.919     -22180.364     -18156.805     -18258.398     -4.0838772      0.8013295     -9.0219029    
Loop time of 2673.18 on 30 procs for 1600000 steps with 4000 atoms

Performance: 51.714 ns/day, 0.464 hours/ns, 598.538 timesteps/s, 2.394 Matom-step/s
90.2% CPU use with 30 MPI tasks x 1 OpenMP threads

MPI task timing breakdown:
Section |  min time  |  avg time  |  max time  |%varavg| %total
---------------------------------------------------------------
Pair    | 2337.2     | 2433.7     | 2509.6     |  78.1 | 91.04
Neigh   | 2.8788     | 3.14       | 3.4469     |  11.4 |  0.12
Comm    | 125        | 193.48     | 288.67     | 271.2 |  7.24
Output  | 0.0004284  | 0.00048468 | 0.00064206 |   0.0 |  0.00
Modify  | 11.362     | 12.289     | 13.967     |  16.7 |  0.46
Other   |            | 30.57      |            |       |  1.14

Nlocal:        133.333 ave         143 max         123 min
Histogram: 1 2 4 5 3 3 1 3 5 3
Nghost:        751.733 ave         811 max         718 min
Histogram: 7 8 3 2 0 0 2 5 1 2
Neighs:         3515.5 ave        3856 max        3184 min
Histogram: 1 2 4 5 5 2 4 4 2 1
FullNghs:         7031 ave        7535 max        6461 min
Histogram: 1 2 4 5 3 3 1 4 4 3

Total # of neighbors = 210930
Ave neighs/atom = 52.7325
Neighbor list builds = 8756
Dangerous builds = 0
include potential.mod
# NOTE: This script can be modified for different pair styles
# See in.elastic for more info.

# we must undefine any fix ave/* fix before using reset_timestep
if "$(is_defined(fix,avp))" then "unfix avp"
unfix avp
reset_timestep 0

# Choose potential

pair_style  meam
pair_coeff * * library-Al.meam Al Al.meam Al



# Setup neighbor style
neighbor 1.0 nsq
neigh_modify once no every 1 delay 0 check yes

# Setup output

fix avp all ave/time  ${nevery} ${nrepeat} ${nfreq} c_thermo_press mode vector
fix avp all ave/time  400 ${nrepeat} ${nfreq} c_thermo_press mode vector
fix avp all ave/time  400 400 ${nfreq} c_thermo_press mode vector
fix avp all ave/time  400 400 160000 c_thermo_press mode vector
thermo		${nthermo}
thermo		160000
thermo_style custom step temp pe press f_avp[1] f_avp[2] f_avp[3] f_avp[4] f_avp[5] f_avp[6]
WARNING: New thermo_style command, previous thermo_modify settings will be lost (src/output.cpp:912)
thermo_modify norm no

# Setup MD

timestep ${timestep}
timestep 0.001
fix 4 all nve
if "${thermostat} == 1" then    "fix 5 all langevin ${temp} ${temp} ${tdamp} ${seed}"
fix 5 all langevin ${temp} ${temp} ${tdamp} ${seed}
fix 5 all langevin 300 ${temp} ${tdamp} ${seed}
fix 5 all langevin 300 300 ${tdamp} ${seed}
fix 5 all langevin 300 300 0.01 ${seed}
fix 5 all langevin 300 300 0.01 123457


run ${nrun}
run 480000
Per MPI rank memory allocation (min/avg/max) = 8.822 | 8.828 | 8.832 Mbytes
   Step          Temp          PotEng         Press         f_avp[1]       f_avp[2]       f_avp[3]       f_avp[4]       f_avp[5]       f_avp[6]   
         0   305.27591     -13226.308     -19170.919      0              0              0              0              0              0            
    160000   302.94793     -13229.051     -19392.315     -22174.984     -18153.558     -18265.059      3.7458422     -5.0616555     -7.3764745    
    320000   301.57968     -13230.922     -19665.724     -22192.286     -18168.263     -18276.695     -1.8503311     -2.9413353      1.1365435    
    480000   300.67684     -13229.917     -19551.312     -22173.489     -18147.759     -18244.879      3.7323113      4.8741949      0.79077335   
Loop time of 744.13 on 30 procs for 480000 steps with 4000 atoms

Performance: 55.732 ns/day, 0.431 hours/ns, 645.049 timesteps/s, 2.580 Matom-step/s
90.2% CPU use with 30 MPI tasks x 1 OpenMP threads

MPI task timing breakdown:
Section |  min time  |  avg time  |  max time  |%varavg| %total
---------------------------------------------------------------
Pair    | 647.96     | 681.21     | 700.12     |  51.1 | 91.54
Neigh   | 0.82977    | 0.93715    | 1.0347     |   7.2 |  0.13
Comm    | 33.691     | 51.345     | 83.464     | 183.3 |  6.90
Output  | 0.00014149 | 0.00016235 | 0.00021429 |   0.0 |  0.00
Modify  | 3.2786     | 3.6338     | 4.0936     |  10.9 |  0.49
Other   |            | 7          |            |       |  0.94

Nlocal:        133.333 ave         144 max         118 min
Histogram: 6 4 0 0 0 0 1 2 14 3
Nghost:        799.433 ave         827 max         762 min
Histogram: 3 4 3 0 0 1 5 1 9 4
Neighs:           3517 ave        3813 max        3081 min
Histogram: 3 5 2 0 0 0 1 4 12 3
FullNghs:         7034 ave        7553 max        6227 min
Histogram: 6 4 0 0 0 0 0 2 12 6

Total # of neighbors = 211020
Ave neighs/atom = 52.755
Neighbor list builds = 2628
Dangerous builds = 0

# Obtain new stress tensor

variable pxx1 equal f_avp[1]
variable pyy1 equal f_avp[2]
variable pzz1 equal f_avp[3]
variable pxy1 equal f_avp[4]
variable pxz1 equal f_avp[5]
variable pyz1 equal f_avp[6]

# Compute elastic constant from pressure tensor

variable C1pos equal ${d1}
variable C1pos equal 70.70272927045
variable C2pos equal ${d2}
variable C2pos equal 34.883295636641
variable C3pos equal ${d3}
variable C3pos equal 34.573336441615
variable C4pos equal ${d4}
variable C4pos equal 0.00591722913010227
variable C5pos equal ${d5}
variable C5pos equal -0.107135551162445
variable C6pos equal ${d6}
variable C6pos equal 0.0313529951266337

# Combine positive and negative

variable C1${dir} equal 0.5*(${C1neg}+${C1pos})
variable C11 equal 0.5*(${C1neg}+${C1pos})
variable C11 equal 0.5*(77.9207765189728+${C1pos})
variable C11 equal 0.5*(77.9207765189728+70.70272927045)
variable C2${dir} equal 0.5*(${C2neg}+${C2pos})
variable C21 equal 0.5*(${C2neg}+${C2pos})
variable C21 equal 0.5*(40.083386886704+${C2pos})
variable C21 equal 0.5*(40.083386886704+34.883295636641)
variable C3${dir} equal 0.5*(${C3neg}+${C3pos})
variable C31 equal 0.5*(${C3neg}+${C3pos})
variable C31 equal 0.5*(39.925323555224+${C3pos})
variable C31 equal 0.5*(39.925323555224+34.573336441615)
variable C4${dir} equal 0.5*(${C4neg}+${C4pos})
variable C41 equal 0.5*(${C4neg}+${C4pos})
variable C41 equal 0.5*(0.0663905637229092+${C4pos})
variable C41 equal 0.5*(0.0663905637229092+0.00591722913010227)
variable C5${dir} equal 0.5*(${C5neg}+${C5pos})
variable C51 equal 0.5*(${C5neg}+${C5pos})
variable C51 equal 0.5*(0.0878213655486584+${C5pos})
variable C51 equal 0.5*(0.0878213655486584+-0.107135551162445)
variable C6${dir} equal 0.5*(${C6neg}+${C6pos})
variable C61 equal 0.5*(${C6neg}+${C6pos})
variable C61 equal 0.5*(-0.123722885615913+${C6pos})
variable C61 equal 0.5*(-0.123722885615913+0.0313529951266337)

# Delete dir to make sure it is not reused

variable dir delete

# uyy Perturbation

variable dir equal 2
include displace.mod
# NOTE: This script should not need to be
# modified. See in.elastic for more info.
#
# Find which reference length to use

if "${dir} == 1" then    "variable len0 equal ${lx0}"
if "${dir} == 2" then    "variable len0 equal ${ly0}"
variable len0 equal ${ly0}
variable len0 equal 41.1600464347122
if "${dir} == 3" then    "variable len0 equal ${lz0}"
if "${dir} == 4" then    "variable len0 equal ${lz0}"
if "${dir} == 5" then    "variable len0 equal ${lz0}"
if "${dir} == 6" then    "variable len0 equal ${ly0}"

# Reset box and simulation parameters

clear
  using 1 OpenMP thread(s) per MPI task
box tilt large

The 'box' command has been removed and will be ignored

read_restart restart.equil
Reading restart file ...
  restart file = 22 Jul 2025, LAMMPS = 22 Jul 2025
  restoring atom style atomic from restart
  triclinic box = (-0.35439391 -0.33002322 -0.33683177) to (40.854394 40.830023 40.836832) with tilt (0 0 0)
  5 by 2 by 3 MPI processor grid
  pair style meam stores no restart info
  4000 atoms
  read_restart CPU = 0.009 seconds
include potential.mod
# NOTE: This script can be modified for different pair styles
# See in.elastic for more info.

# we must undefine any fix ave/* fix before using reset_timestep
if "$(is_defined(fix,avp))" then "unfix avp"
reset_timestep 0

# Choose potential

pair_style  meam
pair_coeff * * library-Al.meam Al Al.meam Al



# Setup neighbor style
neighbor 1.0 nsq
neigh_modify once no every 1 delay 0 check yes

# Setup output

fix avp all ave/time  ${nevery} ${nrepeat} ${nfreq} c_thermo_press mode vector
fix avp all ave/time  400 ${nrepeat} ${nfreq} c_thermo_press mode vector
fix avp all ave/time  400 400 ${nfreq} c_thermo_press mode vector
fix avp all ave/time  400 400 160000 c_thermo_press mode vector
thermo		${nthermo}
thermo		160000
thermo_style custom step temp pe press f_avp[1] f_avp[2] f_avp[3] f_avp[4] f_avp[5] f_avp[6]
thermo_modify norm no

# Setup MD

timestep ${timestep}
timestep 0.001
fix 4 all nve
if "${thermostat} == 1" then    "fix 5 all langevin ${temp} ${temp} ${tdamp} ${seed}"
fix 5 all langevin ${temp} ${temp} ${tdamp} ${seed}
fix 5 all langevin 300 ${temp} ${tdamp} ${seed}
fix 5 all langevin 300 300 ${tdamp} ${seed}
fix 5 all langevin 300 300 0.01 ${seed}
fix 5 all langevin 300 300 0.01 123457



# Negative deformation

variable delta equal -${up}*${len0}
variable delta equal -0.01*${len0}
variable delta equal -0.01*41.1600464347122
variable deltaxy equal -${up}*xy
variable deltaxy equal -0.01*xy
variable deltaxz equal -${up}*xz
variable deltaxz equal -0.01*xz
variable deltayz equal -${up}*yz
variable deltayz equal -0.01*yz
if "${dir} == 1" then    "change_box all x delta 0 ${delta} xy delta ${deltaxy} xz delta ${deltaxz} remap units box"
if "${dir} == 2" then    "change_box all y delta 0 ${delta} yz delta ${deltayz} remap units box"
change_box all y delta 0 ${delta} yz delta ${deltayz} remap units box
change_box all y delta 0 -0.411600464347122 yz delta ${deltayz} remap units box
change_box all y delta 0 -0.411600464347122 yz delta 0 remap units box
Changing box ...
  triclinic box = (-0.35439391 -0.33002322 -0.33683177) to (40.854394 40.418423 40.836832) with tilt (0 0 0)
  triclinic box = (-0.35439391 -0.33002322 -0.33683177) to (40.854394 40.418423 40.836832) with tilt (0 0 0)
if "${dir} == 3" then    "change_box all z delta 0 ${delta} remap units box"
if "${dir} == 4" then    "change_box all yz delta ${delta} remap units box"
if "${dir} == 5" then    "change_box all xz delta ${delta} remap units box"
if "${dir} == 6" then    "change_box all xy delta ${delta} remap units box"

# Run MD

run ${nequil}
run 1600000
Neighbor list info ...
  update: every = 1 steps, delay = 0 steps, check = yes
  max neighbors/atom: 2000, page size: 100000
  master list distance cutoff = 6
  ghost atom cutoff = 6
  2 neighbor lists, perpetual/occasional/extra = 2 0 0
  (1) pair meam, perpetual
      attributes: full, newton on
      pair build: full/nsq
      stencil: none
      bin: none
  (2) pair meam, perpetual, half/full from (1)
      attributes: half, newton on
      pair build: halffull/newton/tri
      stencil: none
      bin: none
Per MPI rank memory allocation (min/avg/max) = 8.809 | 8.821 | 8.83 Mbytes
   Step          Temp          PotEng         Press         f_avp[1]       f_avp[2]       f_avp[3]       f_avp[4]       f_avp[5]       f_avp[6]   
         0   307.06101     -13252.182     -9059.1081      0              0              0              0              0              0            
    160000   297.67966     -13260.293     -9911.1288     -11135.315     -6898.1903     -10775.038      2.6359218     -0.36055879    -5.8159704    
    320000   304.91983     -13261.241     -9861.7091     -11113.49      -6872.5677     -10769.226     -3.2716133     -2.1085965     -4.6832075    
    480000   301.78064     -13254.864     -9316.3617     -11104.561     -6873.0104     -10778.642      2.454109      -5.1657416     -10.609918    
    640000   300.70573     -13256.849     -9538.8169     -11082.771     -6853.5        -10751.313     -2.9176294     -3.7266764     -0.55465042   
    800000   290.81666     -13252.006     -9134.5746     -11103.906     -6871.1108     -10765.674      4.6179085      10.554548     -5.6408604    
    960000   303.37694     -13259         -9642.2104     -11107.155     -6861.6616     -10727.253     -6.7626147     -16.382054     -0.048088318  
   1120000   297.3162      -13257.984     -9646.7189     -11110.09      -6868.7479     -10770.7       -8.0727925     -4.1466322     -6.5119065    
   1280000   297.87635     -13253.678     -9253.6692     -11104.561     -6875.0278     -10747.226      2.5603596      1.5594301      7.3089072    
   1440000   298.76685     -13257.175     -9494.2559     -11113.221     -6875.6066     -10752.769      5.6261096     -9.7465125     -6.5301786    
   1600000   298.34894     -13257.048     -9544.3276     -11121.748     -6888.2265     -10784.227     -5.233632       9.2420623      0.44506697   
Loop time of 2887.75 on 30 procs for 1600000 steps with 4000 atoms

Performance: 47.871 ns/day, 0.501 hours/ns, 554.064 timesteps/s, 2.216 Matom-step/s
90.5% CPU use with 30 MPI tasks x 1 OpenMP threads

MPI task timing breakdown:
Section |  min time  |  avg time  |  max time  |%varavg| %total
---------------------------------------------------------------
Pair    | 2456       | 2571.4     | 2622.7     |  74.4 | 89.04
Neigh   | 2.6274     | 2.828      | 3.0686     |  10.4 |  0.10
Comm    | 189.73     | 242.39     | 349.88     | 227.9 |  8.39
Output  | 0.00047055 | 0.00055174 | 0.00073723 |   0.0 |  0.00
Modify  | 11.783     | 12.41      | 13.141     |  12.8 |  0.43
Other   |            | 58.76      |            |       |  2.03

Nlocal:        133.333 ave         143 max         123 min
Histogram: 2 3 3 2 3 5 2 2 4 4
Nghost:        785.433 ave         833 max         751 min
Histogram: 5 10 3 2 0 0 0 1 1 8
Neighs:        3557.33 ave        3911 max        3285 min
Histogram: 5 2 4 2 4 3 5 2 2 1
FullNghs:      7114.67 ave        7640 max        6558 min
Histogram: 3 4 1 3 2 5 2 2 6 2

Total # of neighbors = 213440
Ave neighs/atom = 53.36
Neighbor list builds = 7665
Dangerous builds = 0
include potential.mod
# NOTE: This script can be modified for different pair styles
# See in.elastic for more info.

# we must undefine any fix ave/* fix before using reset_timestep
if "$(is_defined(fix,avp))" then "unfix avp"
unfix avp
reset_timestep 0

# Choose potential

pair_style  meam
pair_coeff * * library-Al.meam Al Al.meam Al



# Setup neighbor style
neighbor 1.0 nsq
neigh_modify once no every 1 delay 0 check yes

# Setup output

fix avp all ave/time  ${nevery} ${nrepeat} ${nfreq} c_thermo_press mode vector
fix avp all ave/time  400 ${nrepeat} ${nfreq} c_thermo_press mode vector
fix avp all ave/time  400 400 ${nfreq} c_thermo_press mode vector
fix avp all ave/time  400 400 160000 c_thermo_press mode vector
thermo		${nthermo}
thermo		160000
thermo_style custom step temp pe press f_avp[1] f_avp[2] f_avp[3] f_avp[4] f_avp[5] f_avp[6]
WARNING: New thermo_style command, previous thermo_modify settings will be lost (src/output.cpp:912)
thermo_modify norm no

# Setup MD

timestep ${timestep}
timestep 0.001
fix 4 all nve
if "${thermostat} == 1" then    "fix 5 all langevin ${temp} ${temp} ${tdamp} ${seed}"
fix 5 all langevin ${temp} ${temp} ${tdamp} ${seed}
fix 5 all langevin 300 ${temp} ${tdamp} ${seed}
fix 5 all langevin 300 300 ${tdamp} ${seed}
fix 5 all langevin 300 300 0.01 ${seed}
fix 5 all langevin 300 300 0.01 123457


run ${nrun}
run 480000
Per MPI rank memory allocation (min/avg/max) = 8.826 | 8.834 | 8.84 Mbytes
   Step          Temp          PotEng         Press         f_avp[1]       f_avp[2]       f_avp[3]       f_avp[4]       f_avp[5]       f_avp[6]   
         0   298.34894     -13257.048     -9544.3276      0              0              0              0              0              0            
    160000   302.42465     -13257.339     -9515.4574     -11111.948     -6878.236      -10754.299     -5.8186038      4.0999159     -3.7600756    
    320000   297.26899     -13260.546     -9875.3748     -11097.873     -6889.9646     -10757.045      15.403759      7.3762666      0.055837538  
    480000   296.90746     -13260.029     -9794.1399     -11110.333     -6864.5467     -10763.236     -4.4490109     -2.8257506     -1.6248993    
Loop time of 863.013 on 30 procs for 480000 steps with 4000 atoms

Performance: 48.055 ns/day, 0.499 hours/ns, 556.191 timesteps/s, 2.225 Matom-step/s
90.9% CPU use with 30 MPI tasks x 1 OpenMP threads

MPI task timing breakdown:
Section |  min time  |  avg time  |  max time  |%varavg| %total
---------------------------------------------------------------
Pair    | 738.87     | 765.78     | 785.34     |  39.3 | 88.73
Neigh   | 0.76931    | 0.85861    | 0.94353    |   6.6 |  0.10
Comm    | 52.656     | 72.17      | 101.77     | 126.2 |  8.36
Output  | 0.00013541 | 0.00016208 | 0.00020479 |   0.0 |  0.00
Modify  | 3.4484     | 3.7701     | 4.0119     |   9.4 |  0.44
Other   |            | 20.43      |            |       |  2.37

Nlocal:        133.333 ave         144 max         118 min
Histogram: 6 4 0 0 0 0 1 4 10 5
Nghost:          838.3 ave         871 max         788 min
Histogram: 1 3 5 1 0 1 5 3 5 6
Neighs:        3559.53 ave        3841 max        3150 min
Histogram: 8 2 0 0 0 0 1 4 9 6
FullNghs:      7119.07 ave        7671 max        6286 min
Histogram: 6 4 0 0 0 0 0 5 10 5

Total # of neighbors = 213572
Ave neighs/atom = 53.393
Neighbor list builds = 2284
Dangerous builds = 0

# Obtain new stress tensor

variable pxx1 equal f_avp[1]
variable pyy1 equal f_avp[2]
variable pzz1 equal f_avp[3]
variable pxy1 equal f_avp[4]
variable pxz1 equal f_avp[5]
variable pyz1 equal f_avp[6]

# Compute elastic constant from pressure tensor

variable C1neg equal ${d1}
variable C1neg equal 39.928835469431
variable C2neg equal ${d2}
variable C2neg equal 77.9488279758835
variable C3neg equal ${d3}
variable C3neg equal 40.243089542763
variable C4neg equal ${d4}
variable C4neg equal -0.0300739558210866
variable C5neg equal ${d5}
variable C5neg equal 0.0301360965141563
variable C6neg equal ${d6}
variable C6neg equal -0.113166217265711

# Reset box and simulation parameters

clear
  using 1 OpenMP thread(s) per MPI task
box tilt large

The 'box' command has been removed and will be ignored

read_restart restart.equil
Reading restart file ...
  restart file = 22 Jul 2025, LAMMPS = 22 Jul 2025
  restoring atom style atomic from restart
  triclinic box = (-0.35439391 -0.33002322 -0.33683177) to (40.854394 40.830023 40.836832) with tilt (0 0 0)
  5 by 2 by 3 MPI processor grid
  pair style meam stores no restart info
  4000 atoms
  read_restart CPU = 0.015 seconds
include potential.mod
# NOTE: This script can be modified for different pair styles
# See in.elastic for more info.

# we must undefine any fix ave/* fix before using reset_timestep
if "$(is_defined(fix,avp))" then "unfix avp"
reset_timestep 0

# Choose potential

pair_style  meam
pair_coeff * * library-Al.meam Al Al.meam Al



# Setup neighbor style
neighbor 1.0 nsq
neigh_modify once no every 1 delay 0 check yes

# Setup output

fix avp all ave/time  ${nevery} ${nrepeat} ${nfreq} c_thermo_press mode vector
fix avp all ave/time  400 ${nrepeat} ${nfreq} c_thermo_press mode vector
fix avp all ave/time  400 400 ${nfreq} c_thermo_press mode vector
fix avp all ave/time  400 400 160000 c_thermo_press mode vector
thermo		${nthermo}
thermo		160000
thermo_style custom step temp pe press f_avp[1] f_avp[2] f_avp[3] f_avp[4] f_avp[5] f_avp[6]
thermo_modify norm no

# Setup MD

timestep ${timestep}
timestep 0.001
fix 4 all nve
if "${thermostat} == 1" then    "fix 5 all langevin ${temp} ${temp} ${tdamp} ${seed}"
fix 5 all langevin ${temp} ${temp} ${tdamp} ${seed}
fix 5 all langevin 300 ${temp} ${tdamp} ${seed}
fix 5 all langevin 300 300 ${tdamp} ${seed}
fix 5 all langevin 300 300 0.01 ${seed}
fix 5 all langevin 300 300 0.01 123457



# Positive deformation

variable delta equal ${up}*${len0}
variable delta equal 0.01*${len0}
variable delta equal 0.01*41.1600464347122
variable deltaxy equal ${up}*xy
variable deltaxy equal 0.01*xy
variable deltaxz equal ${up}*xz
variable deltaxz equal 0.01*xz
variable deltayz equal ${up}*yz
variable deltayz equal 0.01*yz
if "${dir} == 1" then    "change_box all x delta 0 ${delta} xy delta ${deltaxy} xz delta ${deltaxz} remap units box"
if "${dir} == 2" then    "change_box all y delta 0 ${delta} yz delta ${deltayz} remap units box"
change_box all y delta 0 ${delta} yz delta ${deltayz} remap units box
change_box all y delta 0 0.411600464347122 yz delta ${deltayz} remap units box
change_box all y delta 0 0.411600464347122 yz delta 0 remap units box
Changing box ...
  triclinic box = (-0.35439391 -0.33002322 -0.33683177) to (40.854394 41.241624 40.836832) with tilt (0 0 0)
  triclinic box = (-0.35439391 -0.33002322 -0.33683177) to (40.854394 41.241624 40.836832) with tilt (0 0 0)
if "${dir} == 3" then    "change_box all z delta 0 ${delta} remap units box"
if "${dir} == 4" then    "change_box all yz delta ${delta} remap units box"
if "${dir} == 5" then    "change_box all xz delta ${delta} remap units box"
if "${dir} == 6" then    "change_box all xy delta ${delta} remap units box"

# Run MD

run ${nequil}
run 1600000
Neighbor list info ...
  update: every = 1 steps, delay = 0 steps, check = yes
  max neighbors/atom: 2000, page size: 100000
  master list distance cutoff = 6
  ghost atom cutoff = 6
  2 neighbor lists, perpetual/occasional/extra = 2 0 0
  (1) pair meam, perpetual
      attributes: full, newton on
      pair build: full/nsq
      stencil: none
      bin: none
  (2) pair meam, perpetual, half/full from (1)
      attributes: half, newton on
      pair build: halffull/newton/tri
      stencil: none
      bin: none
Per MPI rank memory allocation (min/avg/max) = 8.806 | 8.818 | 8.827 Mbytes
   Step          Temp          PotEng         Press         f_avp[1]       f_avp[2]       f_avp[3]       f_avp[4]       f_avp[5]       f_avp[6]   
         0   307.06101     -13237.373     -20179.373      0              0              0              0              0              0            
    160000   306.46949     -13232.936     -19791.15      -18583.482     -21754.297     -18306.169      4.4654218     -7.6074973     -11.756952    
    320000   300.03408     -13231.717     -19701.718     -18589.755     -21740.967     -18299.407      11.879049     -17.970027     -8.3478664    
    480000   293.45963     -13229.696     -19598.5       -18597.982     -21768.773     -18308.195      0.82184696     1.9118284     -8.1522137    
    640000   305.3796      -13232.072     -19687.289     -18609.44      -21763.956     -18315.85       7.1958913     -10.214726      1.6863185    
    800000   299.01425     -13229.307     -19415.075     -18588.58      -21779         -18304.007     -3.4500286     -2.0778983      12.237002    
    960000   303.2518      -13229.198     -19411.837     -18589.02      -21759.042     -18318.011      1.8412596     -12.049637     -0.83833216   
   1120000   305.91052     -13231.699     -19666.035     -18586.747     -21750.743     -18281.026      8.2969512     -7.2695347     -2.9208799    
   1280000   301.92497     -13231.118     -19581.945     -18605.627     -21762.428     -18317.455      10.458344     -7.3370687      1.4714072    
   1440000   300.33793     -13232.491     -19741.275     -18599.275     -21789.759     -18336.565     -1.7150087      1.9457822     -9.6038939    
   1600000   303.73658     -13231.056     -19570.451     -18602.495     -21771.057     -18316.399     -1.3869192      9.3215632      6.9726434    
Loop time of 2820.2 on 30 procs for 1600000 steps with 4000 atoms

Performance: 49.018 ns/day, 0.490 hours/ns, 567.335 timesteps/s, 2.269 Matom-step/s
91.1% CPU use with 30 MPI tasks x 1 OpenMP threads

MPI task timing breakdown:
Section |  min time  |  avg time  |  max time  |%varavg| %total
---------------------------------------------------------------
Pair    | 2385.2     | 2506       | 2572.3     |  92.3 | 88.86
Neigh   | 2.9317     | 3.1912     | 3.5231     |  11.3 |  0.11
Comm    | 180.2      | 246.28     | 375.48     | 306.1 |  8.73
Output  | 0.0004638  | 0.00051768 | 0.00068684 |   0.0 |  0.00
Modify  | 11.61      | 12.389     | 13.424     |  13.3 |  0.44
Other   |            | 52.33      |            |       |  1.86

Nlocal:        133.333 ave         144 max         123 min
Histogram: 3 2 4 5 3 1 4 2 3 3
Nghost:        756.867 ave         809 max         719 min
Histogram: 4 7 7 2 0 0 1 0 6 3
Neighs:         3516.8 ave        3798 max        3207 min
Histogram: 2 2 3 4 5 1 2 5 3 3
FullNghs:       7033.6 ave        7607 max        6455 min
Histogram: 2 2 3 7 2 2 4 3 2 3

Total # of neighbors = 211008
Ave neighs/atom = 52.752
Neighbor list builds = 8719
Dangerous builds = 0
include potential.mod
# NOTE: This script can be modified for different pair styles
# See in.elastic for more info.

# we must undefine any fix ave/* fix before using reset_timestep
if "$(is_defined(fix,avp))" then "unfix avp"
unfix avp
reset_timestep 0

# Choose potential

pair_style  meam
pair_coeff * * library-Al.meam Al Al.meam Al



# Setup neighbor style
neighbor 1.0 nsq
neigh_modify once no every 1 delay 0 check yes

# Setup output

fix avp all ave/time  ${nevery} ${nrepeat} ${nfreq} c_thermo_press mode vector
fix avp all ave/time  400 ${nrepeat} ${nfreq} c_thermo_press mode vector
fix avp all ave/time  400 400 ${nfreq} c_thermo_press mode vector
fix avp all ave/time  400 400 160000 c_thermo_press mode vector
thermo		${nthermo}
thermo		160000
thermo_style custom step temp pe press f_avp[1] f_avp[2] f_avp[3] f_avp[4] f_avp[5] f_avp[6]
WARNING: New thermo_style command, previous thermo_modify settings will be lost (src/output.cpp:912)
thermo_modify norm no

# Setup MD

timestep ${timestep}
timestep 0.001
fix 4 all nve
if "${thermostat} == 1" then    "fix 5 all langevin ${temp} ${temp} ${tdamp} ${seed}"
fix 5 all langevin ${temp} ${temp} ${tdamp} ${seed}
fix 5 all langevin 300 ${temp} ${tdamp} ${seed}
fix 5 all langevin 300 300 ${tdamp} ${seed}
fix 5 all langevin 300 300 0.01 ${seed}
fix 5 all langevin 300 300 0.01 123457


run ${nrun}
run 480000
Per MPI rank memory allocation (min/avg/max) = 8.824 | 8.831 | 8.837 Mbytes
   Step          Temp          PotEng         Press         f_avp[1]       f_avp[2]       f_avp[3]       f_avp[4]       f_avp[5]       f_avp[6]   
         0   303.73658     -13231.056     -19570.451      0              0              0              0              0              0            
    160000   300.10105     -13232.265     -19729.106     -18586.61      -21734.425     -18307.531      1.6177976      5.7860052      0.5314567    
    320000   295.17107     -13230.593     -19711.912     -18600.516     -21745.469     -18305.723      7.2763746      3.2189734     -16.74198     
    480000   308.80967     -13230.882     -19556.37      -18605.174     -21781.948     -18322.779     -12.897453      5.9237842      2.6509019    
Loop time of 854.109 on 30 procs for 480000 steps with 4000 atoms

Performance: 48.556 ns/day, 0.494 hours/ns, 561.989 timesteps/s, 2.248 Matom-step/s
91.3% CPU use with 30 MPI tasks x 1 OpenMP threads

MPI task timing breakdown:
Section |  min time  |  avg time  |  max time  |%varavg| %total
---------------------------------------------------------------
Pair    | 712.07     | 761.9      | 786.11     |  62.5 | 89.20
Neigh   | 0.82055    | 0.93468    | 1.0344     |   7.5 |  0.11
Comm    | 52.876     | 76.628     | 126.71     | 200.6 |  8.97
Output  | 0.00013973 | 0.00016609 | 0.00021344 |   0.0 |  0.00
Modify  | 3.2673     | 3.6412     | 3.9192     |  10.5 |  0.43
Other   |            | 11.01      |            |       |  1.29

Nlocal:        133.333 ave         143 max         117 min
Histogram: 3 6 1 0 0 0 0 2 11 7
Nghost:          807.3 ave         840 max         769 min
Histogram: 5 4 1 0 2 2 3 3 8 2
Neighs:         3519.1 ave        3785 max        3069 min
Histogram: 2 6 2 0 0 0 0 4 11 5
FullNghs:       7038.2 ave        7538 max        6160 min
Histogram: 3 5 2 0 0 0 0 2 10 8

Total # of neighbors = 211146
Ave neighs/atom = 52.7865
Neighbor list builds = 2600
Dangerous builds = 0

# Obtain new stress tensor

variable pxx1 equal f_avp[1]
variable pyy1 equal f_avp[2]
variable pzz1 equal f_avp[3]
variable pxy1 equal f_avp[4]
variable pxz1 equal f_avp[5]
variable pyz1 equal f_avp[6]

# Compute elastic constant from pressure tensor

variable C1pos equal ${d1}
variable C1pos equal 35.01957264271
variable C2pos equal ${d2}
variable C2pos equal 71.225189271134
variable C3pos equal ${d3}
variable C3pos equal 35.352338103552
variable C4pos equal ${d4}
variable C4pos equal -0.0126840563778406
variable C5pos equal ${d5}
variable C5pos equal -0.117631443791579
variable C6pos equal ${d6}
variable C6pos equal 0.197650640924784

# Combine positive and negative

variable C1${dir} equal 0.5*(${C1neg}+${C1pos})
variable C12 equal 0.5*(${C1neg}+${C1pos})
variable C12 equal 0.5*(39.928835469431+${C1pos})
variable C12 equal 0.5*(39.928835469431+35.01957264271)
variable C2${dir} equal 0.5*(${C2neg}+${C2pos})
variable C22 equal 0.5*(${C2neg}+${C2pos})
variable C22 equal 0.5*(77.9488279758835+${C2pos})
variable C22 equal 0.5*(77.9488279758835+71.225189271134)
variable C3${dir} equal 0.5*(${C3neg}+${C3pos})
variable C32 equal 0.5*(${C3neg}+${C3pos})
variable C32 equal 0.5*(40.243089542763+${C3pos})
variable C32 equal 0.5*(40.243089542763+35.352338103552)
variable C4${dir} equal 0.5*(${C4neg}+${C4pos})
variable C42 equal 0.5*(${C4neg}+${C4pos})
variable C42 equal 0.5*(-0.0300739558210866+${C4pos})
variable C42 equal 0.5*(-0.0300739558210866+-0.0126840563778406)
variable C5${dir} equal 0.5*(${C5neg}+${C5pos})
variable C52 equal 0.5*(${C5neg}+${C5pos})
variable C52 equal 0.5*(0.0301360965141563+${C5pos})
variable C52 equal 0.5*(0.0301360965141563+-0.117631443791579)
variable C6${dir} equal 0.5*(${C6neg}+${C6pos})
variable C62 equal 0.5*(${C6neg}+${C6pos})
variable C62 equal 0.5*(-0.113166217265711+${C6pos})
variable C62 equal 0.5*(-0.113166217265711+0.197650640924784)

# Delete dir to make sure it is not reused

variable dir delete

# uzz Perturbation

variable dir equal 3
include displace.mod
# NOTE: This script should not need to be
# modified. See in.elastic for more info.
#
# Find which reference length to use

if "${dir} == 1" then    "variable len0 equal ${lx0}"
if "${dir} == 2" then    "variable len0 equal ${ly0}"
if "${dir} == 3" then    "variable len0 equal ${lz0}"
variable len0 equal ${lz0}
variable len0 equal 41.1736635304057
if "${dir} == 4" then    "variable len0 equal ${lz0}"
if "${dir} == 5" then    "variable len0 equal ${lz0}"
if "${dir} == 6" then    "variable len0 equal ${ly0}"

# Reset box and simulation parameters

clear
  using 1 OpenMP thread(s) per MPI task
box tilt large

The 'box' command has been removed and will be ignored

read_restart restart.equil
Reading restart file ...
  restart file = 22 Jul 2025, LAMMPS = 22 Jul 2025
  restoring atom style atomic from restart
  triclinic box = (-0.35439391 -0.33002322 -0.33683177) to (40.854394 40.830023 40.836832) with tilt (0 0 0)
  5 by 2 by 3 MPI processor grid
  pair style meam stores no restart info
  4000 atoms
  read_restart CPU = 0.009 seconds
include potential.mod
# NOTE: This script can be modified for different pair styles
# See in.elastic for more info.

# we must undefine any fix ave/* fix before using reset_timestep
if "$(is_defined(fix,avp))" then "unfix avp"
reset_timestep 0

# Choose potential

pair_style  meam
pair_coeff * * library-Al.meam Al Al.meam Al



# Setup neighbor style
neighbor 1.0 nsq
neigh_modify once no every 1 delay 0 check yes

# Setup output

fix avp all ave/time  ${nevery} ${nrepeat} ${nfreq} c_thermo_press mode vector
fix avp all ave/time  400 ${nrepeat} ${nfreq} c_thermo_press mode vector
fix avp all ave/time  400 400 ${nfreq} c_thermo_press mode vector
fix avp all ave/time  400 400 160000 c_thermo_press mode vector
thermo		${nthermo}
thermo		160000
thermo_style custom step temp pe press f_avp[1] f_avp[2] f_avp[3] f_avp[4] f_avp[5] f_avp[6]
thermo_modify norm no

# Setup MD

timestep ${timestep}
timestep 0.001
fix 4 all nve
if "${thermostat} == 1" then    "fix 5 all langevin ${temp} ${temp} ${tdamp} ${seed}"
fix 5 all langevin ${temp} ${temp} ${tdamp} ${seed}
fix 5 all langevin 300 ${temp} ${tdamp} ${seed}
fix 5 all langevin 300 300 ${tdamp} ${seed}
fix 5 all langevin 300 300 0.01 ${seed}
fix 5 all langevin 300 300 0.01 123457



# Negative deformation

variable delta equal -${up}*${len0}
variable delta equal -0.01*${len0}
variable delta equal -0.01*41.1736635304057
variable deltaxy equal -${up}*xy
variable deltaxy equal -0.01*xy
variable deltaxz equal -${up}*xz
variable deltaxz equal -0.01*xz
variable deltayz equal -${up}*yz
variable deltayz equal -0.01*yz
if "${dir} == 1" then    "change_box all x delta 0 ${delta} xy delta ${deltaxy} xz delta ${deltaxz} remap units box"
if "${dir} == 2" then    "change_box all y delta 0 ${delta} yz delta ${deltayz} remap units box"
if "${dir} == 3" then    "change_box all z delta 0 ${delta} remap units box"
change_box all z delta 0 ${delta} remap units box
change_box all z delta 0 -0.411736635304057 remap units box
Changing box ...
  triclinic box = (-0.35439391 -0.33002322 -0.33683177) to (40.854394 40.830023 40.425095) with tilt (0 0 0)
if "${dir} == 4" then    "change_box all yz delta ${delta} remap units box"
if "${dir} == 5" then    "change_box all xz delta ${delta} remap units box"
if "${dir} == 6" then    "change_box all xy delta ${delta} remap units box"

# Run MD

run ${nequil}
run 1600000
Neighbor list info ...
  update: every = 1 steps, delay = 0 steps, check = yes
  max neighbors/atom: 2000, page size: 100000
  master list distance cutoff = 6
  ghost atom cutoff = 6
  2 neighbor lists, perpetual/occasional/extra = 2 0 0
  (1) pair meam, perpetual
      attributes: full, newton on
      pair build: full/nsq
      stencil: none
      bin: none
  (2) pair meam, perpetual, half/full from (1)
      attributes: half, newton on
      pair build: halffull/newton/tri
      stencil: none
      bin: none
Per MPI rank memory allocation (min/avg/max) = 8.808 | 8.821 | 8.829 Mbytes
   Step          Temp          PotEng         Press         f_avp[1]       f_avp[2]       f_avp[3]       f_avp[4]       f_avp[5]       f_avp[6]   
         0   307.06101     -13252.187     -9054.9541      0              0              0              0              0              0            
    160000   300.56325     -13259.239     -9757.5233     -11133.731     -10638.754     -7015.4296      7.2089586     -1.6368403      8.2205373    
    320000   302.45367     -13258.023     -9680.9071     -11091.783     -10616.095     -6976.0388      16.194342     -7.1371523     -3.6773224    
    480000   292.21137     -13258.604     -9788.2674     -11091.499     -10621.234     -6971.7246     -1.0010506     -10.621211     -4.0141221    
    640000   293.27016     -13257.739     -9560.6837     -11131.054     -10646.417     -6994.2528      5.712557       10.824787      5.4990122    
    800000   294.45663     -13261.781     -10034.567     -11121.109     -10639.52      -6988.4609     -10.837301     -0.61707706     16.928182    
    960000   299.17336     -13259.586     -9802.9346     -11095.119     -10622.859     -6988.8575      3.7809806      8.0317612      0.66659393   
   1120000   295.08414     -13255.467     -9474.72       -11132.217     -10666.604     -7018.5197     -8.2722181     -9.9092146     -8.0207137    
   1280000   298.41389     -13259.42      -9736.3034     -11107.209     -10642.68      -6985.0993      4.7263622      4.684936       3.6734266    
   1440000   296.38242     -13255.605     -9471.989      -11122.416     -10648.512     -6995.4344      11.599422     -5.6813505      11.752959    
   1600000   301.21537     -13255.891     -9378.0592     -11123.817     -10634.329     -6991.8542     -2.899977       5.3132075     -3.5950765    
Loop time of 2838.2 on 30 procs for 1600000 steps with 4000 atoms

Performance: 48.707 ns/day, 0.493 hours/ns, 563.737 timesteps/s, 2.255 Matom-step/s
91.6% CPU use with 30 MPI tasks x 1 OpenMP threads

MPI task timing breakdown:
Section |  min time  |  avg time  |  max time  |%varavg| %total
---------------------------------------------------------------
Pair    | 2388.4     | 2525.2     | 2607.2     | 121.9 | 88.97
Neigh   | 2.5907     | 2.8167     | 3.0924     |  10.2 |  0.10
Comm    | 175.18     | 250.94     | 396.29     | 397.7 |  8.84
Output  | 0.00043798 | 0.00048576 | 0.0006283  |   0.0 |  0.00
Modify  | 11.59      | 12.36      | 13.316     |  14.0 |  0.44
Other   |            | 46.83      |            |       |  1.65

Nlocal:        133.333 ave         143 max         123 min
Histogram: 1 3 3 4 5 1 2 4 4 3
Nghost:        778.567 ave         830 max         738 min
Histogram: 2 6 6 5 1 0 0 3 5 2
Neighs:         3558.5 ave        3849 max        3294 min
Histogram: 3 3 4 4 2 3 2 3 5 1
FullNghs:         7117 ave        7641 max        6558 min
Histogram: 1 4 2 6 3 2 1 4 5 2

Total # of neighbors = 213510
Ave neighs/atom = 53.3775
Neighbor list builds = 7623
Dangerous builds = 0
include potential.mod
# NOTE: This script can be modified for different pair styles
# See in.elastic for more info.

# we must undefine any fix ave/* fix before using reset_timestep
if "$(is_defined(fix,avp))" then "unfix avp"
unfix avp
reset_timestep 0

# Choose potential

pair_style  meam
pair_coeff * * library-Al.meam Al Al.meam Al



# Setup neighbor style
neighbor 1.0 nsq
neigh_modify once no every 1 delay 0 check yes

# Setup output

fix avp all ave/time  ${nevery} ${nrepeat} ${nfreq} c_thermo_press mode vector
fix avp all ave/time  400 ${nrepeat} ${nfreq} c_thermo_press mode vector
fix avp all ave/time  400 400 ${nfreq} c_thermo_press mode vector
fix avp all ave/time  400 400 160000 c_thermo_press mode vector
thermo		${nthermo}
thermo		160000
thermo_style custom step temp pe press f_avp[1] f_avp[2] f_avp[3] f_avp[4] f_avp[5] f_avp[6]
WARNING: New thermo_style command, previous thermo_modify settings will be lost (src/output.cpp:912)
thermo_modify norm no

# Setup MD

timestep ${timestep}
timestep 0.001
fix 4 all nve
if "${thermostat} == 1" then    "fix 5 all langevin ${temp} ${temp} ${tdamp} ${seed}"
fix 5 all langevin ${temp} ${temp} ${tdamp} ${seed}
fix 5 all langevin 300 ${temp} ${tdamp} ${seed}
fix 5 all langevin 300 300 ${tdamp} ${seed}
fix 5 all langevin 300 300 0.01 ${seed}
fix 5 all langevin 300 300 0.01 123457


run ${nrun}
run 480000
Per MPI rank memory allocation (min/avg/max) = 8.827 | 8.834 | 8.844 Mbytes
   Step          Temp          PotEng         Press         f_avp[1]       f_avp[2]       f_avp[3]       f_avp[4]       f_avp[5]       f_avp[6]   
         0   301.21537     -13255.891     -9378.0592      0              0              0              0              0              0            
    160000   301.2994      -13254.326     -9294.8629     -11111.534     -10632.431     -7023.1689      3.8752381     -10.727654      1.9363758    
    320000   307.96727     -13254.105     -9156.1539     -11103.213     -10611.332     -6985.6121     -0.34836816     0.89139558    -1.4955688    
    480000   298.76439     -13256.694     -9489.381      -11109.194     -10628.101     -6988.0418      5.2830085      0.84942895     6.2415228    
Loop time of 784.745 on 30 procs for 480000 steps with 4000 atoms

Performance: 52.848 ns/day, 0.454 hours/ns, 611.664 timesteps/s, 2.447 Matom-step/s
91.6% CPU use with 30 MPI tasks x 1 OpenMP threads

MPI task timing breakdown:
Section |  min time  |  avg time  |  max time  |%varavg| %total
---------------------------------------------------------------
Pair    | 695.65     | 717.83     | 733.47     |  40.4 | 91.47
Neigh   | 0.7687     | 0.85705    | 0.93645    |   6.5 |  0.11
Comm    | 38.061     | 54.226     | 77.255     | 153.6 |  6.91
Output  | 0.00012656 | 0.00014052 | 0.00018883 |   0.0 |  0.00
Modify  | 3.4278     | 3.7253     | 3.9491     |   9.3 |  0.47
Other   |            | 8.108      |            |       |  1.03

Nlocal:        133.333 ave         144 max         117 min
Histogram: 4 5 1 0 0 0 0 4 13 3
Nghost:        821.333 ave         850 max         779 min
Histogram: 4 5 1 0 0 0 1 5 8 6
Neighs:        3558.47 ave        3841 max        3097 min
Histogram: 3 4 3 0 0 0 0 6 10 4
FullNghs:      7116.93 ave        7709 max        6246 min
Histogram: 4 5 1 0 0 0 1 5 11 3

Total # of neighbors = 213508
Ave neighs/atom = 53.377
Neighbor list builds = 2291
Dangerous builds = 0

# Obtain new stress tensor

variable pxx1 equal f_avp[1]
variable pyy1 equal f_avp[2]
variable pzz1 equal f_avp[3]
variable pxy1 equal f_avp[4]
variable pxz1 equal f_avp[5]
variable pyz1 equal f_avp[6]

# Compute elastic constant from pressure tensor

variable C1neg equal ${d1}
variable C1neg equal 39.940227800673
variable C2neg equal ${d2}
variable C2neg equal 40.313283325528
variable C3neg equal ${d3}
variable C3neg equal 77.9950337845838
variable C4neg equal ${d4}
variable C4neg equal 0.0485902652221052
variable C5neg equal ${d5}
variable C5neg equal 0.0668878916872977
variable C6neg equal ${d6}
variable C6neg equal -0.0158460230750676

# Reset box and simulation parameters

clear
  using 1 OpenMP thread(s) per MPI task
box tilt large

The 'box' command has been removed and will be ignored

read_restart restart.equil
Reading restart file ...
  restart file = 22 Jul 2025, LAMMPS = 22 Jul 2025
  restoring atom style atomic from restart
  triclinic box = (-0.35439391 -0.33002322 -0.33683177) to (40.854394 40.830023 40.836832) with tilt (0 0 0)
  5 by 2 by 3 MPI processor grid
  pair style meam stores no restart info
  4000 atoms
  read_restart CPU = 0.022 seconds
include potential.mod
# NOTE: This script can be modified for different pair styles
# See in.elastic for more info.

# we must undefine any fix ave/* fix before using reset_timestep
if "$(is_defined(fix,avp))" then "unfix avp"
reset_timestep 0

# Choose potential

pair_style  meam
pair_coeff * * library-Al.meam Al Al.meam Al



# Setup neighbor style
neighbor 1.0 nsq
neigh_modify once no every 1 delay 0 check yes

# Setup output

fix avp all ave/time  ${nevery} ${nrepeat} ${nfreq} c_thermo_press mode vector
fix avp all ave/time  400 ${nrepeat} ${nfreq} c_thermo_press mode vector
fix avp all ave/time  400 400 ${nfreq} c_thermo_press mode vector
fix avp all ave/time  400 400 160000 c_thermo_press mode vector
thermo		${nthermo}
thermo		160000
thermo_style custom step temp pe press f_avp[1] f_avp[2] f_avp[3] f_avp[4] f_avp[5] f_avp[6]
thermo_modify norm no

# Setup MD

timestep ${timestep}
timestep 0.001
fix 4 all nve
if "${thermostat} == 1" then    "fix 5 all langevin ${temp} ${temp} ${tdamp} ${seed}"
fix 5 all langevin ${temp} ${temp} ${tdamp} ${seed}
fix 5 all langevin 300 ${temp} ${tdamp} ${seed}
fix 5 all langevin 300 300 ${tdamp} ${seed}
fix 5 all langevin 300 300 0.01 ${seed}
fix 5 all langevin 300 300 0.01 123457



# Positive deformation

variable delta equal ${up}*${len0}
variable delta equal 0.01*${len0}
variable delta equal 0.01*41.1736635304057
variable deltaxy equal ${up}*xy
variable deltaxy equal 0.01*xy
variable deltaxz equal ${up}*xz
variable deltaxz equal 0.01*xz
variable deltayz equal ${up}*yz
variable deltayz equal 0.01*yz
if "${dir} == 1" then    "change_box all x delta 0 ${delta} xy delta ${deltaxy} xz delta ${deltaxz} remap units box"
if "${dir} == 2" then    "change_box all y delta 0 ${delta} yz delta ${deltayz} remap units box"
if "${dir} == 3" then    "change_box all z delta 0 ${delta} remap units box"
change_box all z delta 0 ${delta} remap units box
change_box all z delta 0 0.411736635304057 remap units box
Changing box ...
  triclinic box = (-0.35439391 -0.33002322 -0.33683177) to (40.854394 40.830023 41.248568) with tilt (0 0 0)
if "${dir} == 4" then    "change_box all yz delta ${delta} remap units box"
if "${dir} == 5" then    "change_box all xz delta ${delta} remap units box"
if "${dir} == 6" then    "change_box all xy delta ${delta} remap units box"

# Run MD

run ${nequil}
run 1600000
Neighbor list info ...
  update: every = 1 steps, delay = 0 steps, check = yes
  max neighbors/atom: 2000, page size: 100000
  master list distance cutoff = 6
  ghost atom cutoff = 6
  2 neighbor lists, perpetual/occasional/extra = 2 0 0
  (1) pair meam, perpetual
      attributes: full, newton on
      pair build: full/nsq
      stencil: none
      bin: none
  (2) pair meam, perpetual, half/full from (1)
      attributes: half, newton on
      pair build: halffull/newton/tri
      stencil: none
      bin: none
Per MPI rank memory allocation (min/avg/max) = 8.807 | 8.82 | 8.828 Mbytes
   Step          Temp          PotEng         Press         f_avp[1]       f_avp[2]       f_avp[3]       f_avp[4]       f_avp[5]       f_avp[6]   
[...]
variable pxz1 equal f_avp[5]
variable pyz1 equal f_avp[6]

# Compute elastic constant from pressure tensor

variable C1neg equal ${d1}
variable C1neg equal 1.20816559400701
variable C2neg equal ${d2}
variable C2neg equal 1.453427179753
variable C3neg equal ${d3}
variable C3neg equal 0.119404693348988
variable C4neg equal ${d4}
variable C4neg equal 0.0944048967836808
variable C5neg equal ${d5}
variable C5neg equal -0.0519623899590788
variable C6neg equal ${d6}
variable C6neg equal 28.3036792031654

# Reset box and simulation parameters

clear
  using 1 OpenMP thread(s) per MPI task
box tilt large

The 'box' command has been removed and will be ignored

read_restart restart.equil
Reading restart file ...
  restart file = 22 Jul 2025, LAMMPS = 22 Jul 2025
  restoring atom style atomic from restart
  triclinic box = (-0.35439391 -0.33002322 -0.33683177) to (40.854394 40.830023 40.836832) with tilt (0 0 0)
  5 by 2 by 3 MPI processor grid
  pair style meam stores no restart info
  4000 atoms
  read_restart CPU = 0.017 seconds
include potential.mod
# NOTE: This script can be modified for different pair styles
# See in.elastic for more info.

# we must undefine any fix ave/* fix before using reset_timestep
if "$(is_defined(fix,avp))" then "unfix avp"
reset_timestep 0

# Choose potential

pair_style  meam
pair_coeff * * library-Al.meam Al Al.meam Al



# Setup neighbor style
neighbor 1.0 nsq
neigh_modify once no every 1 delay 0 check yes

# Setup output

fix avp all ave/time  ${nevery} ${nrepeat} ${nfreq} c_thermo_press mode vector
fix avp all ave/time  400 ${nrepeat} ${nfreq} c_thermo_press mode vector
fix avp all ave/time  400 400 ${nfreq} c_thermo_press mode vector
fix avp all ave/time  400 400 160000 c_thermo_press mode vector
thermo		${nthermo}
thermo		160000
thermo_style custom step temp pe press f_avp[1] f_avp[2] f_avp[3] f_avp[4] f_avp[5] f_avp[6]
thermo_modify norm no

# Setup MD

timestep ${timestep}
timestep 0.001
fix 4 all nve
if "${thermostat} == 1" then    "fix 5 all langevin ${temp} ${temp} ${tdamp} ${seed}"
fix 5 all langevin ${temp} ${temp} ${tdamp} ${seed}
fix 5 all langevin 300 ${temp} ${tdamp} ${seed}
fix 5 all langevin 300 300 ${tdamp} ${seed}
fix 5 all langevin 300 300 0.01 ${seed}
fix 5 all langevin 300 300 0.01 123457



# Positive deformation

variable delta equal ${up}*${len0}
variable delta equal 0.01*${len0}
variable delta equal 0.01*41.1600464347122
variable deltaxy equal ${up}*xy
variable deltaxy equal 0.01*xy
variable deltaxz equal ${up}*xz
variable deltaxz equal 0.01*xz
variable deltayz equal ${up}*yz
variable deltayz equal 0.01*yz
if "${dir} == 1" then    "change_box all x delta 0 ${delta} xy delta ${deltaxy} xz delta ${deltaxz} remap units box"
if "${dir} == 2" then    "change_box all y delta 0 ${delta} yz delta ${deltayz} remap units box"
if "${dir} == 3" then    "change_box all z delta 0 ${delta} remap units box"
if "${dir} == 4" then    "change_box all yz delta ${delta} remap units box"
if "${dir} == 5" then    "change_box all xz delta ${delta} remap units box"
if "${dir} == 6" then    "change_box all xy delta ${delta} remap units box"
change_box all xy delta ${delta} remap units box
change_box all xy delta 0.411600464347122 remap units box
Changing box ...
  triclinic box = (-0.35439391 -0.33002322 -0.33683177) to (40.854394 40.830023 40.836832) with tilt (0.41160046 0 0)

# Run MD

run ${nequil}
run 1600000
Neighbor list info ...
  update: every = 1 steps, delay = 0 steps, check = yes
  max neighbors/atom: 2000, page size: 100000
  master list distance cutoff = 6
  ghost atom cutoff = 6
  2 neighbor lists, perpetual/occasional/extra = 2 0 0
  (1) pair meam, perpetual
      attributes: full, newton on
      pair build: full/nsq
      stencil: none
      bin: none
  (2) pair meam, perpetual, half/full from (1)
      attributes: half, newton on
      pair build: halffull/newton/tri
      stencil: none
      bin: none
Per MPI rank memory allocation (min/avg/max) = 8.808 | 8.82 | 8.829 Mbytes
   Step          Temp          PotEng         Press         f_avp[1]       f_avp[2]       f_avp[3]       f_avp[4]       f_avp[5]       f_avp[6]   
         0   307.06101     -13245.91      -14807.893      0              0              0              0              0              0            
    160000   297.00565     -13245.077     -14765.194     -14957.9       -14486.738     -14755.325     -2839.961      -3.0944578      11.704742    
    320000   293.276       -13246.953     -14947.316     -14970.666     -14511.585     -14779.358     -2829.2235      4.2568798      15.603219    
    480000   300.65811     -13245.408     -14841.602     -14965.073     -14496.652     -14767.751     -2843.5881     -5.7703072     -6.3058652    
    640000   306.01864     -13244.585     -14698.814     -14960.72      -14490.258     -14761.942     -2832.3734      15.634137      12.156131    
    800000   293.7883      -13248.756     -15121.345     -14983.076     -14496.416     -14778.035     -2842.0319     -12.36245       9.177288     
    960000   304.4699      -13247.793     -15007.797     -14997.825     -14519.303     -14775.675     -2844.2311      0.35945485     3.9655024    
   1120000   300.81879     -13245.451     -14805.235     -14985.256     -14495.119     -14783.323     -2850.1924     -3.9840708     -12.157912    
   1280000   297.97148     -13245.144     -14740.815     -14970.524     -14499.112     -14768.656     -2838.0782      14.377945      2.9158106    
   1440000   299.81959     -13243.835     -14718.689     -14959.956     -14487.466     -14768.923     -2838.7329      1.8410799     -1.6582533    
   1600000   296.14957     -13242.457     -14529.226     -14984.909     -14497.681     -14770.512     -2847.8277      8.0420078      2.66517      
Loop time of 2591.03 on 30 procs for 1600000 steps with 4000 atoms

Performance: 53.353 ns/day, 0.450 hours/ns, 617.514 timesteps/s, 2.470 Matom-step/s
92.1% CPU use with 30 MPI tasks x 1 OpenMP threads

MPI task timing breakdown:
Section |  min time  |  avg time  |  max time  |%varavg| %total
---------------------------------------------------------------
Pair    | 2229.4     | 2359.7     | 2443.2     | 101.6 | 91.07
Neigh   | 2.846      | 3.1706     | 3.6162     |  12.8 |  0.12
Comm    | 109.32     | 187.03     | 307.86     | 350.7 |  7.22
Output  | 0.00045156 | 0.00050405 | 0.00068045 |   0.0 |  0.00
Modify  | 11.729     | 12.897     | 14.771     |  20.0 |  0.50
Other   |            | 28.23      |            |       |  1.09

Nlocal:        133.333 ave         143 max         124 min
Histogram: 3 3 1 8 1 2 3 3 4 2
Nghost:        769.233 ave         823 max         730 min
Histogram: 4 6 9 1 0 0 0 1 5 4
Neighs:        3540.23 ave        3779 max        3210 min
Histogram: 1 3 2 1 5 4 3 3 2 6
FullNghs:      7080.47 ave        7579 max        6596 min
Histogram: 6 1 0 8 1 2 1 4 3 4

Total # of neighbors = 212414
Ave neighs/atom = 53.1035
Neighbor list builds = 8228
Dangerous builds = 0
include potential.mod
# NOTE: This script can be modified for different pair styles
# See in.elastic for more info.

# we must undefine any fix ave/* fix before using reset_timestep
if "$(is_defined(fix,avp))" then "unfix avp"
unfix avp
reset_timestep 0

# Choose potential

pair_style  meam
pair_coeff * * library-Al.meam Al Al.meam Al



# Setup neighbor style
neighbor 1.0 nsq
neigh_modify once no every 1 delay 0 check yes

# Setup output

fix avp all ave/time  ${nevery} ${nrepeat} ${nfreq} c_thermo_press mode vector
fix avp all ave/time  400 ${nrepeat} ${nfreq} c_thermo_press mode vector
fix avp all ave/time  400 400 ${nfreq} c_thermo_press mode vector
fix avp all ave/time  400 400 160000 c_thermo_press mode vector
thermo		${nthermo}
thermo		160000
thermo_style custom step temp pe press f_avp[1] f_avp[2] f_avp[3] f_avp[4] f_avp[5] f_avp[6]
WARNING: New thermo_style command, previous thermo_modify settings will be lost (src/output.cpp:912)
thermo_modify norm no

# Setup MD

timestep ${timestep}
timestep 0.001
fix 4 all nve
if "${thermostat} == 1" then    "fix 5 all langevin ${temp} ${temp} ${tdamp} ${seed}"
fix 5 all langevin ${temp} ${temp} ${tdamp} ${seed}
fix 5 all langevin 300 ${temp} ${tdamp} ${seed}
fix 5 all langevin 300 300 ${tdamp} ${seed}
fix 5 all langevin 300 300 0.01 ${seed}
fix 5 all langevin 300 300 0.01 123457


run ${nrun}
run 480000
Per MPI rank memory allocation (min/avg/max) = 8.825 | 8.833 | 8.839 Mbytes
   Step          Temp          PotEng         Press         f_avp[1]       f_avp[2]       f_avp[3]       f_avp[4]       f_avp[5]       f_avp[6]   
         0   296.14957     -13242.457     -14529.226      0              0              0              0              0              0            
    160000   301.70303     -13245.855     -14816.141     -14996.193     -14512.348     -14782.809     -2832.7734      2.7556748     -17.122624    
    320000   299.45189     -13244.813     -14768.44      -14967.411     -14488.707     -14780.466     -2845.4264      13.173066     -17.34118     
    480000   299.73911     -13245.365     -14762.446     -14971.894     -14504.536     -14761.494     -2850.4592      0.82419746     21.333878    
Loop time of 766.162 on 30 procs for 480000 steps with 4000 atoms

Performance: 54.130 ns/day, 0.443 hours/ns, 626.499 timesteps/s, 2.506 Matom-step/s
92.2% CPU use with 30 MPI tasks x 1 OpenMP threads

MPI task timing breakdown:
Section |  min time  |  avg time  |  max time  |%varavg| %total
---------------------------------------------------------------
Pair    | 660.82     | 698.97     | 722.61     |  53.9 | 91.23
Neigh   | 0.83707    | 0.95664    | 1.0922     |   7.7 |  0.12
Comm    | 32.081     | 54.216     | 89.889     | 185.8 |  7.08
Output  | 0.0001314  | 0.00014594 | 0.00018994 |   0.0 |  0.00
Modify  | 3.4722     | 3.8828     | 4.4539     |  12.2 |  0.51
Other   |            | 8.134      |            |       |  1.06

Nlocal:        133.333 ave         143 max         117 min
Histogram: 5 2 3 0 0 0 0 4 7 9
Nghost:        816.433 ave         851 max         770 min
Histogram: 1 5 4 0 1 1 4 5 4 5
Neighs:        3540.87 ave        3820 max        3092 min
Histogram: 5 3 2 0 0 0 1 3 9 7
FullNghs:      7081.73 ave        7615 max        6190 min
Histogram: 4 2 4 0 0 0 1 4 7 8

Total # of neighbors = 212452
Ave neighs/atom = 53.113
Neighbor list builds = 2470
Dangerous builds = 0

# Obtain new stress tensor

variable pxx1 equal f_avp[1]
variable pyy1 equal f_avp[2]
variable pzz1 equal f_avp[3]
variable pxy1 equal f_avp[4]
variable pxz1 equal f_avp[5]
variable pyz1 equal f_avp[6]

# Compute elastic constant from pressure tensor

variable C1pos equal ${d1}
variable C1pos equal -1.31322680084
variable C2pos equal ${d2}
variable C2pos equal -1.548932154225
variable C3pos equal ${d3}
variable C3pos equal -0.260510657431987
variable C4pos equal ${d4}
variable C4pos equal -0.199513813802269
variable C5pos equal ${d5}
variable C5pos equal -0.0666355768601585
variable C6pos equal ${d6}
variable C6pos equal 28.5732684917576

# Combine positive and negative

variable C1${dir} equal 0.5*(${C1neg}+${C1pos})
variable C16 equal 0.5*(${C1neg}+${C1pos})
variable C16 equal 0.5*(1.20816559400701+${C1pos})
variable C16 equal 0.5*(1.20816559400701+-1.31322680084)
variable C2${dir} equal 0.5*(${C2neg}+${C2pos})
variable C26 equal 0.5*(${C2neg}+${C2pos})
variable C26 equal 0.5*(1.453427179753+${C2pos})
variable C26 equal 0.5*(1.453427179753+-1.548932154225)
variable C3${dir} equal 0.5*(${C3neg}+${C3pos})
variable C36 equal 0.5*(${C3neg}+${C3pos})
variable C36 equal 0.5*(0.119404693348988+${C3pos})
variable C36 equal 0.5*(0.119404693348988+-0.260510657431987)
variable C4${dir} equal 0.5*(${C4neg}+${C4pos})
variable C46 equal 0.5*(${C4neg}+${C4pos})
variable C46 equal 0.5*(0.0944048967836808+${C4pos})
variable C46 equal 0.5*(0.0944048967836808+-0.199513813802269)
variable C5${dir} equal 0.5*(${C5neg}+${C5pos})
variable C56 equal 0.5*(${C5neg}+${C5pos})
variable C56 equal 0.5*(-0.0519623899590788+${C5pos})
variable C56 equal 0.5*(-0.0519623899590788+-0.0666355768601585)
variable C6${dir} equal 0.5*(${C6neg}+${C6pos})
variable C66 equal 0.5*(${C6neg}+${C6pos})
variable C66 equal 0.5*(28.3036792031654+${C6pos})
variable C66 equal 0.5*(28.3036792031654+28.5732684917576)

# Delete dir to make sure it is not reused

variable dir delete

# Output final values

variable C11all equal ${C11}
variable C11all equal 74.3117528947114
variable C22all equal ${C22}
variable C22all equal 74.5870086235088
variable C33all equal ${C33}
variable C33all equal 74.4824228119534

variable C12all equal 0.5*(${C12}+${C21})
variable C12all equal 0.5*(37.4742040560705+${C21})
variable C12all equal 0.5*(37.4742040560705+37.4833412616725)
variable C13all equal 0.5*(${C13}+${C31})
variable C13all equal 0.5*(37.3631490434075+${C31})
variable C13all equal 0.5*(37.3631490434075+37.2493299984195)
variable C23all equal 0.5*(${C23}+${C32})
variable C23all equal 0.5*(37.8437787856855+${C32})
variable C23all equal 0.5*(37.8437787856855+37.7977138231575)

variable C44all equal ${C44}
variable C44all equal 28.6379973822072
variable C55all equal ${C55}
variable C55all equal 28.2209116624124
variable C66all equal ${C66}
variable C66all equal 28.4384738474615

variable C14all equal 0.5*(${C14}+${C41})
variable C14all equal 0.5*(-0.016648546748502+${C41})
variable C14all equal 0.5*(-0.016648546748502+0.0361538964265057)
variable C15all equal 0.5*(${C15}+${C51})
variable C15all equal 0.5*(-0.0569831779559999+${C51})
variable C15all equal 0.5*(-0.0569831779559999+-0.0096570928068933)
variable C16all equal 0.5*(${C16}+${C61})
variable C16all equal 0.5*(-0.0525306034164951+${C61})
variable C16all equal 0.5*(-0.0525306034164951+-0.0461849452446397)

variable C24all equal 0.5*(${C24}+${C42})
variable C24all equal 0.5*(0.0311270455260001+${C42})
variable C24all equal 0.5*(0.0311270455260001+-0.0213790060994636)
variable C25all equal 0.5*(${C25}+${C52})
variable C25all equal 0.5*(-0.0769295635214985+${C52})
variable C25all equal 0.5*(-0.0769295635214985+-0.0437476736387113)
variable C26all equal 0.5*(${C26}+${C62})
variable C26all equal 0.5*(-0.047752487236+${C62})
variable C26all equal 0.5*(-0.047752487236+0.0422422118295365)

variable C34all equal 0.5*(${C34}+${C43})
variable C34all equal 0.5*(0.023897596785+${C43})
variable C34all equal 0.5*(0.023897596785+0.0580579678169202)
variable C35all equal 0.5*(${C35}+${C53})
variable C35all equal 0.5*(0.002980686146+${C53})
variable C35all equal 0.5*(0.002980686146+-0.0206990322843047)
variable C36all equal 0.5*(${C36}+${C63})
variable C36all equal 0.5*(-0.0705529820414995+${C63})
variable C36all equal 0.5*(-0.0705529820414995+0.025598684926273)

variable C45all equal 0.5*(${C45}+${C54})
variable C45all equal 0.5*(0.0161779425420465+${C54})
variable C45all equal 0.5*(0.0161779425420465+-0.0273388679954482)
variable C46all equal 0.5*(${C46}+${C64})
variable C46all equal 0.5*(-0.0525544585092941+${C64})
variable C46all equal 0.5*(-0.0525544585092941+-0.0040645168097199)
variable C56all equal 0.5*(${C56}+${C65})
variable C56all equal 0.5*(-0.0592989834096187+${C65})
variable C56all equal 0.5*(-0.0592989834096187+0.049081758871625)

# Average moduli for cubic crystals

variable C11cubic equal (${C11all}+${C22all}+${C33all})/3.0
variable C11cubic equal (74.3117528947114+${C22all}+${C33all})/3.0
variable C11cubic equal (74.3117528947114+74.5870086235088+${C33all})/3.0
variable C11cubic equal (74.3117528947114+74.5870086235088+74.4824228119534)/3.0
variable C12cubic equal (${C12all}+${C13all}+${C23all})/3.0
variable C12cubic equal (37.4787726588715+${C13all}+${C23all})/3.0
variable C12cubic equal (37.4787726588715+37.3062395209135+${C23all})/3.0
variable C12cubic equal (37.4787726588715+37.3062395209135+37.8207463044215)/3.0
variable C44cubic equal (${C44all}+${C55all}+${C66all})/3.0
variable C44cubic equal (28.6379973822072+${C55all}+${C66all})/3.0
variable C44cubic equal (28.6379973822072+28.2209116624124+${C66all})/3.0
variable C44cubic equal (28.6379973822072+28.2209116624124+28.4384738474615)/3.0

variable bulkmodulus equal (${C11cubic}+2*${C12cubic})/3.0
variable bulkmodulus equal (74.4603947767245+2*${C12cubic})/3.0
variable bulkmodulus equal (74.4603947767245+2*37.5352528280688)/3.0
variable shearmodulus1 equal ${C44cubic}
variable shearmodulus1 equal 28.432460964027
variable shearmodulus2 equal (${C11cubic}-${C12cubic})/2.0
variable shearmodulus2 equal (74.4603947767245-${C12cubic})/2.0
variable shearmodulus2 equal (74.4603947767245-37.5352528280688)/2.0
variable poissonratio equal 1.0/(1.0+${C11cubic}/${C12cubic})
variable poissonratio equal 1.0/(1.0+74.4603947767245/${C12cubic})
variable poissonratio equal 1.0/(1.0+74.4603947767245/37.5352528280688)

# For Stillinger-Weber silicon, the analytical results
# are known to be (E. R. Cowley, 1988):
#               C11 = 151.4 GPa
#               C12 = 76.4 GPa
#               C44 = 56.4 GPa

print "========================================="
=========================================
print "Components of the Elastic Constant Tensor"
Components of the Elastic Constant Tensor
print "========================================="
=========================================

print "Elastic Constant C11all = ${C11all} ${cunits}"
Elastic Constant C11all = 74.3117528947114 GPa
print "Elastic Constant C22all = ${C22all} ${cunits}"
Elastic Constant C22all = 74.5870086235088 GPa
print "Elastic Constant C33all = ${C33all} ${cunits}"
Elastic Constant C33all = 74.4824228119534 GPa

print "Elastic Constant C12all = ${C12all} ${cunits}"
Elastic Constant C12all = 37.4787726588715 GPa
print "Elastic Constant C13all = ${C13all} ${cunits}"
Elastic Constant C13all = 37.3062395209135 GPa
print "Elastic Constant C23all = ${C23all} ${cunits}"
Elastic Constant C23all = 37.8207463044215 GPa

print "Elastic Constant C44all = ${C44all} ${cunits}"
Elastic Constant C44all = 28.6379973822072 GPa
print "Elastic Constant C55all = ${C55all} ${cunits}"
Elastic Constant C55all = 28.2209116624124 GPa
print "Elastic Constant C66all = ${C66all} ${cunits}"
Elastic Constant C66all = 28.4384738474615 GPa

print "Elastic Constant C14all = ${C14all} ${cunits}"
Elastic Constant C14all = 0.00975267483900185 GPa
print "Elastic Constant C15all = ${C15all} ${cunits}"
Elastic Constant C15all = -0.0333201353814466 GPa
print "Elastic Constant C16all = ${C16all} ${cunits}"
Elastic Constant C16all = -0.0493577743305674 GPa

print "Elastic Constant C24all = ${C24all} ${cunits}"
Elastic Constant C24all = 0.00487401971326825 GPa
print "Elastic Constant C25all = ${C25all} ${cunits}"
Elastic Constant C25all = -0.0603386185801049 GPa
print "Elastic Constant C26all = ${C26all} ${cunits}"
Elastic Constant C26all = -0.00275513770323175 GPa

print "Elastic Constant C34all = ${C34all} ${cunits}"
Elastic Constant C34all = 0.0409777823009601 GPa
print "Elastic Constant C35all = ${C35all} ${cunits}"
Elastic Constant C35all = -0.00885917306915235 GPa
print "Elastic Constant C36all = ${C36all} ${cunits}"
Elastic Constant C36all = -0.0224771485576132 GPa

print "Elastic Constant C45all = ${C45all} ${cunits}"
Elastic Constant C45all = -0.00558046272670085 GPa
print "Elastic Constant C46all = ${C46all} ${cunits}"
Elastic Constant C46all = -0.028309487659507 GPa
print "Elastic Constant C56all = ${C56all} ${cunits}"
Elastic Constant C56all = -0.00510861226899685 GPa

print "========================================="
=========================================
print "Average properties for a cubic crystal"
Average properties for a cubic crystal
print "========================================="
=========================================

print "Bulk Modulus = ${bulkmodulus} ${cunits}"
Bulk Modulus = 49.8436334776207 GPa
print "Shear Modulus 1 = ${shearmodulus1} ${cunits}"
Shear Modulus 1 = 28.432460964027 GPa
print "Shear Modulus 2 = ${shearmodulus2} ${cunits}"
Shear Modulus 2 = 18.4625709743278 GPa
print "Poisson Ratio = ${poissonratio}"
Poisson Ratio = 0.335149210088253
Total wall time: 13:38:30
