LAMMPS data file via write_data, version 23 Jun 2022, timestep = 14

72 atoms
3 atom types

-0.003426355275449462 10.803426355275452 xlo xhi
-0.003426355275449074 10.803426355275452 ylo yhi
0.0013826711111338244 7.270617328888866 zlo zhi

Masses

1 58.6934
2 26.9815
3 101.0699

Atoms # atomic

1 1 1.7977157631497003 -0.003426355275449074 1.8186913355555658 0 0 0
4 1 -0.003426355275449211 1.7977157631497007 1.8186913355555658 0 0 0
5 3 -0.003426355275449211 -0.003426355275449074 0.0013826711111339506 0 0 0
6 1 1.7977157631497003 1.7977157631497007 0.0013826711111339365 0 0 0
7 1 1.7977157631497003 3.59885788157485 1.8186913355555658 0 0 0
8 1 3.5988578815748498 1.7977157631497007 1.8186913355555658 0 0 0
9 3 3.5988578815748498 -0.003426355275449074 0.0013826711111339443 0 0 0
17 3 -0.003426355275449211 3.59885788157485 0.0013826711111339521 0 0 0
21 3 3.5988578815748498 3.59885788157485 0.0013826711111339439 0 0 0
37 1 -0.003426355275449211 -0.003426355275449074 3.635999999999998 0 0 0
38 1 -0.003426355275449211 1.7977157631497007 5.4533086644444335 0 0 0
39 1 1.7977157631497003 -0.003426355275449074 5.4533086644444335 0 0 0
40 1 3.5988578815748498 -0.003426355275449074 3.635999999999998 0 0 0
41 1 3.5988578815748498 1.7977157631497007 5.4533086644444335 0 0 0
46 1 -0.003426355275449211 3.59885788157485 3.635999999999998 0 0 0
48 1 1.7977157631497003 3.59885788157485 5.4533086644444335 0 0 0
49 3 1.7977157631497003 1.7977157631497007 3.635999999999998 0 0 0
50 1 3.5988578815748498 3.59885788157485 3.635999999999998 0 0 0
2 1 5.4 -0.003426355275449074 1.8186913355555658 0 0 0
3 1 9.002284236850297 -0.003426355275449074 1.8186913355555658 0 0 0
10 1 5.4 1.7977157631497007 0.0013826711111339382 0 0 0
11 1 5.4 3.59885788157485 1.8186913355555658 0 0 0
12 1 7.20114211842515 1.7977157631497007 1.8186913355555658 0 0 0
13 3 7.20114211842515 -0.003426355275449074 0.0013826711111339486 0 0 0
14 1 9.002284236850297 1.7977157631497007 0.0013826711111339326 0 0 0
15 1 9.002284236850297 3.59885788157485 1.8186913355555658 0 0 0
25 3 7.20114211842515 3.59885788157485 0.0013826711111339506 0 0 0
42 1 5.4 -0.003426355275449074 5.4533086644444335 0 0 0
43 1 7.20114211842515 -0.003426355275449074 3.635999999999998 0 0 0
44 1 7.20114211842515 1.7977157631497007 5.4533086644444335 0 0 0
45 1 9.002284236850297 -0.003426355275449074 5.4533086644444335 0 0 0
52 1 5.4 3.59885788157485 5.4533086644444335 0 0 0
53 3 5.4 1.7977157631497007 3.635999999999998 0 0 0
54 1 7.20114211842515 3.59885788157485 3.635999999999998 0 0 0
56 1 9.002284236850297 3.59885788157485 5.4533086644444335 0 0 0
57 3 9.002284236850297 1.7977157631497007 3.635999999999998 0 0 0
16 1 -0.003426355275449211 5.4 1.8186913355555658 0 0 0
18 1 1.7977157631497003 5.4 0.0013826711111339408 0 0 0
19 1 1.7977157631497003 7.20114211842515 1.8186913355555658 0 0 0
20 1 3.5988578815748498 5.4 1.8186913355555658 0 0 0
28 1 -0.003426355275449211 9.002284236850299 1.8186913355555658 0 0 0
29 3 -0.003426355275449211 7.20114211842515 0.0013826711111339495 0 0 0
30 1 1.7977157631497003 9.002284236850299 0.0013826711111339324 0 0 0
31 1 3.5988578815748498 9.002284236850299 1.8186913355555658 0 0 0
32 3 3.5988578815748498 7.20114211842515 0.0013826711111339426 0 0 0
47 1 -0.003426355275449211 5.4 5.4533086644444335 0 0 0
51 1 3.5988578815748498 5.4 5.4533086644444335 0 0 0
58 1 -0.003426355275449211 7.20114211842515 3.635999999999998 0 0 0
59 1 -0.003426355275449211 9.002284236850299 5.4533086644444335 0 0 0
60 1 1.7977157631497003 7.20114211842515 5.4533086644444335 0 0 0
61 3 1.7977157631497003 5.4 3.635999999999998 0 0 0
62 1 3.5988578815748498 7.20114211842515 3.635999999999998 0 0 0
63 1 3.5988578815748498 9.002284236850299 5.4533086644444335 0 0 0
70 3 1.7977157631497003 9.002284236850299 3.635999999999998 0 0 0
22 1 5.4 5.4 0.0013826711111339424 0 0 0
23 1 5.4 7.20114211842515 1.8186913355555658 0 0 0
24 1 7.20114211842515 5.4 1.8186913355555658 0 0 0
26 1 9.002284236850297 5.4 0.001382671111133933 0 0 0
27 1 9.002284236850297 7.20114211842515 1.8186913355555658 0 0 0
33 1 5.4 9.002284236850299 0.0013826711111339302 0 0 0
34 1 7.20114211842515 9.002284236850299 1.8186913355555658 0 0 0
35 3 7.20114211842515 7.20114211842515 0.0013826711111339452 0 0 0
36 1 9.002284236850297 9.002284236850299 0.0013826711111339235 0 0 0
55 1 7.20114211842515 5.4 5.4533086644444335 0 0 0
64 1 5.4 7.20114211842515 5.4533086644444335 0 0 0
65 3 5.4 5.4 3.635999999999998 0 0 0
66 1 7.20114211842515 7.20114211842515 3.635999999999998 0 0 0
67 1 7.20114211842515 9.002284236850299 5.4533086644444335 0 0 0
68 1 9.002284236850297 7.20114211842515 5.4533086644444335 0 0 0
69 3 9.002284236850297 5.4 3.635999999999998 0 0 0
71 3 5.4 9.002284236850299 3.635999999999998 0 0 0
72 3 9.002284236850297 9.002284236850299 3.635999999999998 0 0 0

Velocities

1 0 0 0
4 0 0 0
5 0 0 0
6 0 0 0
7 0 0 0
8 0 0 0
9 0 0 0
17 0 0 0
21 0 0 0
37 0 0 0
38 0 0 0
39 0 0 0
40 0 0 0
41 0 0 0
46 0 0 0
48 0 0 0
49 0 0 0
50 0 0 0
2 0 0 0
3 0 0 0
10 0 0 0
11 0 0 0
12 0 0 0
13 0 0 0
14 0 0 0
15 0 0 0
25 0 0 0
42 0 0 0
43 0 0 0
44 0 0 0
45 0 0 0
52 0 0 0
53 0 0 0
54 0 0 0
56 0 0 0
57 0 0 0
16 0 0 0
18 0 0 0
19 0 0 0
20 0 0 0
28 0 0 0
29 0 0 0
30 0 0 0
31 0 0 0
32 0 0 0
47 0 0 0
51 0 0 0
58 0 0 0
59 0 0 0
60 0 0 0
61 0 0 0
62 0 0 0
63 0 0 0
70 0 0 0
22 0 0 0
23 0 0 0
24 0 0 0
26 0 0 0
27 0 0 0
33 0 0 0
34 0 0 0
35 0 0 0
36 0 0 0
55 0 0 0
64 0 0 0
65 0 0 0
66 0 0 0
67 0 0 0
68 0 0 0
69 0 0 0
71 0 0 0
72 0 0 0
