LAMMPS data file via write_data, version 7 Jan 2022, timestep = 2785

64 atoms
3 atom types

-1.155210384921964 9.455210384922783 xlo xhi
-1.1552103849219635 9.455210384922783 ylo yhi
-1.1552103849219633 9.455210384922783 zlo zhi

Masses

1 58.6934
2 26.9815
3 101.0699

Atoms # atomic

1 1 4.150000000000392 9.45521038492278 9.45521038492278 0 -1 -1
7 1 9.455210384922779 9.45521038492278 9.45521038492278 -1 -1 -1
8 2 0.17109221130862998 0.1710922113086302 0.17109221130863042 0 0 0
9 1 1.4973948075392225 1.4973948075392225 9.45521038492278 0 0 -1
10 2 2.823697403769805 2.8236974037698044 0.17109221130863042 0 0 0
11 1 4.150000000000392 4.150000000000392 9.45521038492278 0 0 -1
15 1 1.4973948075392225 9.45521038492278 1.4973948075392227 0 -1 0
16 2 2.823697403769805 0.1710922113086302 2.823697403769805 0 0 0
17 1 4.150000000000392 1.4973948075392225 1.4973948075392227 0 0 0
21 1 4.150000000000392 9.45521038492278 4.150000000000392 0 -1 0
27 1 9.455210384922779 4.150000000000392 9.45521038492278 -1 0 -1
31 1 9.455210384922779 1.4973948075392225 1.4973948075392227 -1 0 0
32 2 0.17109221130862998 2.8236974037698044 2.823697403769805 0 0 0
33 1 1.4973948075392225 4.150000000000392 1.4973948075392227 0 0 0
37 1 9.455210384922779 9.45521038492278 4.150000000000392 -1 -1 0
39 1 1.4973948075392225 1.4973948075392225 4.150000000000392 0 0 0
41 1 4.150000000000392 4.150000000000392 4.150000000000392 0 0 0
53 1 9.455210384922779 4.150000000000392 4.150000000000392 -1 0 0
2 2 5.47630259623118 0.1710922113086302 0.17109221130863042 0 0 0
3 1 6.802605192461632 1.4973948075392225 9.45521038492278 0 0 -1
4 2 8.128907788692013 2.8236974037698044 0.17109221130863042 0 0 0
5 1 6.802605192461632 9.45521038492278 1.4973948075392227 0 -1 0
6 2 8.128907788692013 0.1710922113086302 2.823697403769805 0 0 0
18 2 5.47630259623118 2.8236974037698044 2.823697403769805 0 0 0
19 1 6.802605192461632 4.150000000000392 1.4973948075392227 0 0 0
23 1 6.802605192461632 1.4973948075392225 4.150000000000392 0 0 0
28 2 0.17109221130862998 5.4763025962311795 0.17109221130863042 0 0 0
29 1 1.4973948075392225 6.80260519246163 9.45521038492278 0 0 -1
30 2 2.823697403769805 8.12890778869201 0.17109221130863042 0 0 0
34 2 2.823697403769805 5.4763025962311795 2.823697403769805 0 0 0
35 1 4.150000000000392 6.80260519246163 1.4973948075392227 0 0 0
51 1 9.455210384922779 6.80260519246163 1.4973948075392227 -1 0 0
52 2 0.17109221130862998 8.12890778869201 2.823697403769805 0 0 0
55 1 1.4973948075392225 6.80260519246163 4.150000000000392 0 0 0
12 2 5.47630259623118 5.4763025962311795 0.17109221130863042 0 0 0
13 1 6.802605192461632 6.80260519246163 9.45521038492278 0 0 -1
14 2 8.128907788692013 8.12890778869201 0.17109221130863042 0 0 0
20 2 8.128907788692013 5.4763025962311795 2.823697403769805 0 0 0
36 2 5.47630259623118 8.12890778869201 2.823697403769805 0 0 0
43 1 6.802605192461632 6.80260519246163 4.150000000000392 0 0 0
38 2 0.17109221130862998 0.1710922113086302 5.47630259623118 0 0 0
40 2 2.823697403769805 2.8236974037698044 5.47630259623118 0 0 0
45 1 1.4973948075392225 9.45521038492278 6.80260519246163 0 -1 0
46 2 2.823697403769805 0.1710922113086302 8.12890778869201 0 0 0
47 1 4.150000000000392 1.4973948075392225 6.80260519246163 0 0 0
57 1 9.455210384922779 1.4973948075392225 6.80260519246163 -1 0 0
58 2 0.17109221130862998 2.8236974037698044 8.12890778869201 0 0 0
59 1 1.4973948075392225 4.150000000000392 6.80260519246163 0 0 0
22 2 5.47630259623118 0.1710922113086302 5.47630259623118 0 0 0
24 2 8.128907788692013 2.8236974037698044 5.47630259623118 0 0 0
25 1 6.802605192461632 9.45521038492278 6.80260519246163 0 -1 0
26 2 8.128907788692013 0.1710922113086302 8.12890778869201 0 0 0
48 2 5.47630259623118 2.8236974037698044 8.12890778869201 0 0 0
49 1 6.802605192461632 4.150000000000392 6.80260519246163 0 0 0
54 2 0.17109221130862998 5.4763025962311795 5.47630259623118 0 0 0
56 2 2.823697403769805 8.12890778869201 5.47630259623118 0 0 0
60 2 2.823697403769805 5.4763025962311795 8.12890778869201 0 0 0
61 1 4.150000000000392 6.80260519246163 6.80260519246163 0 0 0
63 1 9.455210384922779 6.80260519246163 6.80260519246163 -1 0 0
64 2 0.17109221130862998 8.12890778869201 8.12890778869201 0 0 0
42 2 5.47630259623118 5.4763025962311795 5.47630259623118 0 0 0
44 2 8.128907788692013 8.12890778869201 5.47630259623118 0 0 0
50 2 8.128907788692013 5.4763025962311795 8.12890778869201 0 0 0
62 2 5.47630259623118 8.12890778869201 8.12890778869201 0 0 0

Velocities

1 0 0 0
7 0 0 0
8 0 0 0
9 0 0 0
10 0 0 0
11 0 0 0
15 0 0 0
16 0 0 0
17 0 0 0
21 0 0 0
27 0 0 0
31 0 0 0
32 0 0 0
33 0 0 0
37 0 0 0
39 0 0 0
41 0 0 0
53 0 0 0
2 0 0 0
3 0 0 0
4 0 0 0
5 0 0 0
6 0 0 0
18 0 0 0
19 0 0 0
23 0 0 0
28 0 0 0
29 0 0 0
30 0 0 0
34 0 0 0
35 0 0 0
51 0 0 0
52 0 0 0
55 0 0 0
12 0 0 0
13 0 0 0
14 0 0 0
20 0 0 0
36 0 0 0
43 0 0 0
38 0 0 0
40 0 0 0
45 0 0 0
46 0 0 0
47 0 0 0
57 0 0 0
58 0 0 0
59 0 0 0
22 0 0 0
24 0 0 0
25 0 0 0
26 0 0 0
48 0 0 0
49 0 0 0
54 0 0 0
56 0 0 0
60 0 0 0
61 0 0 0
63 0 0 0
64 0 0 0
42 0 0 0
44 0 0 0
50 0 0 0
62 0 0 0
