LAMMPS (7 Jan 2022)
OMP_NUM_THREADS environment is not set. Defaulting to 1 thread. (src/comm.cpp:98)
  using 1 OpenMP thread(s) per MPI task
clear
OMP_NUM_THREADS environment is not set. Defaulting to 1 thread. (src/comm.cpp:98)
  using 1 OpenMP thread(s) per MPI task
echo none
Lattice spacing in x,y,z = 4.15 4.15 4.15
Created orthogonal box = (0 0 0) to (8.3 8.3 8.3)
  1 by 1 by 1 MPI processor grid
Created 64 atoms
  using lattice units in orthogonal box = (0 0 0) to (8.3 8.3 8.3)
  create_atoms CPU = 0.004 seconds
System init for write_data ...
Neighbor list info ...
  update every 1 steps, delay 10 steps, check yes
  max neighbors/atom: 2000, page size: 100000
  master list distance cutoff = 8.499539
  ghost atom cutoff = 8.499539
  binsize = 4.2497695, bins = 2 2 2
  2 neighbor lists, perpetual/occasional/extra = 1 1 0
  (1) pair eam/alloy, perpetual
      attributes: half, newton on
      pair build: half/bin/atomonly/newton
      stencil: half/bin/3d
      bin: standard
  (2) compute centro/atom, occasional
      attributes: full, newton on
      pair build: full/bin/atomonly
      stencil: full/bin/3d
      bin: standard
32 atoms in group Al
32 atoms in group Ni
0 atoms in group Ru
***** Al atoms = 32
***** Ni atoms = 32
***** Ru atoms = 0
WARNING: Using 'neigh_modify every 1 delay 0 check yes' setting during minimization (src/min.cpp:187)
Per MPI rank memory allocation (min/avg/max) = 5.173 | 5.173 | 5.173 Mbytes
Step Temp E_pair E_mol TotEng Press Volume 
       0            0    987.54865            0    987.54865     36791540      571.787 
    1000            0   -166.02187            0   -166.02187    478091.72     761.0485 
    2000            0   -201.86836            0   -201.86836    93348.933    988.04794 
    2785            0   -207.87541            0   -207.87541 -5.307997e-08    1194.5321 
Loop time of 1.00987 on 1 procs for 2785 steps with 64 atoms

97.8% CPU use with 1 MPI tasks x 1 OpenMP threads

Minimization stats:
  Stopping criterion = force tolerance
  Energy initial, next-to-last, final = 
      987.548646777164  -207.875414735411  -207.875414735411
  Force two-norm initial, final = 22742.202 5.3883192e-11
  Force max component initial, final = 13130.217 3.0971747e-11
  Final line search alpha, max atom move = 1 3.0971747e-11
  Iterations, force evaluations = 2785 2787

MPI task timing breakdown:
Section |  min time  |  avg time  |  max time  |%varavg| %total
---------------------------------------------------------------
Pair    | 0.86828    | 0.86828    | 0.86828    |   0.0 | 85.98
Neigh   | 0.00091447 | 0.00091447 | 0.00091447 |   0.0 |  0.09
Comm    | 0.026681   | 0.026681   | 0.026681   |   0.0 |  2.64
Output  | 0.0032349  | 0.0032349  | 0.0032349  |   0.0 |  0.32
Modify  | 0          | 0          | 0          |   0.0 |  0.00
Other   |            | 0.1108     |            |       | 10.97

Nlocal:             64 ave          64 max          64 min
Histogram: 1 0 0 0 0 0 0 0 0 0
Nghost:           1101 ave        1101 max        1101 min
Histogram: 1 0 0 0 0 0 0 0 0 0
Neighs:           4672 ave        4672 max        4672 min
Histogram: 1 0 0 0 0 0 0 0 0 0
FullNghs:            0 ave           0 max           0 min
Histogram: 1 0 0 0 0 0 0 0 0 0

Total # of neighbors = 4672
Ave neighs/atom = 73
Neighbor list builds = 4
Dangerous builds = 0
Cohesive Energy (eV/atom): -3.2480533552408
Lattice Parameter (Angstroms): 5.30521038492237
c: 5.30521038492237
c/a ratio: 1
System init for write_data ...
Total wall time: 0:00:01
